LAMMPS (30 Apr 2019)
OMP_NUM_THREADS environment is not set. Defaulting to 1 thread. (../comm.cpp:88)
  using 1 OpenMP thread(s) per MPI task
Lattice spacing in x,y,z = 4.04526 4.04526 4.04526
Created orthogonal box = (0 0 0) to (4.04526 4.04526 4.04526)
  1 by 1 by 1 MPI processor grid
Created 4 atoms
  create_atoms CPU = 0.00122299 secs
Replicating atoms ...
  orthogonal box = (0 0 0) to (28.3168 28.3168 28.3168)
  1 by 1 by 1 MPI processor grid
  1372 atoms
Finding 1-2 1-3 1-4 neighbors ...
  special bond factors lj:   0          0          0         
  special bond factors coul: 0          0          0         
  0 = max # of 1-2 neighbors
  0 = max # of 1-3 neighbors
  0 = max # of 1-4 neighbors
  1 = max # of special neighbors
  special bonds CPU = 0.000153655 secs
  replicate CPU = 0.000607408 secs
Neighbor list info ...
  update every 1 steps, delay 0 steps, check yes
  max neighbors/atom: 2000, page size: 100000
  master list distance cutoff = 7.5
  ghost atom cutoff = 7.5
  1 neighbor lists, perpetual/occasional/extra = 1 0 0
  (1) pair eam/fs, perpetual
      attributes: half, newton on
      pair build: half/nsq/newton
      stencil: none
      bin: none
Setting up cg style minimization ...
  Unit style    : metal
  Current step  : 0
WARNING: Energy due to 3 extra global DOFs will be included in minimizer energies
Per MPI rank memory allocation (min/avg/max) = 7.194 | 7.194 | 7.194 Mbytes
Step Temp PotEng Press Pxx Pyy Pzz Pxy Pxz Pyz Lx Ly Lz Volume 
       0            0   -4679.4213 -0.0012510514 -0.0012510515 -0.0012510514 -0.0012510514 6.8791176e-11 6.1404754e-11 3.2591917e-11    28.316819    28.316819    28.316819     22705.62 
       1            0   -4679.4213 -0.0012510514 -0.0012510515 -0.0012510514 -0.0012510514 6.8791176e-11 6.1404754e-11 3.2591917e-11    28.316819    28.316819    28.316819     22705.62 
Loop time of 0.0101902 on 1 procs for 1 steps with 1372 atoms

99.7% CPU use with 1 MPI tasks x 1 OpenMP threads

Minimization stats:
  Stopping criterion = linesearch alpha is zero
  Energy initial, next-to-last, final = 
        -4679.42134051     -4679.42134051     -4679.42134051
  Force two-norm initial, final = 3.07085e-05 3.07085e-05
  Force max component initial, final = 1.77296e-05 1.77296e-05
  Final line search alpha, max atom move = 0.5 8.86478e-06
  Iterations, force evaluations = 1 3

MPI task timing breakdown:
Section |  min time  |  avg time  |  max time  |%varavg| %total
---------------------------------------------------------------
Pair    | 0.0099175  | 0.0099175  | 0.0099175  |   0.0 | 97.32
Bond    | 4.09e-07   | 4.09e-07   | 4.09e-07   |   0.0 |  0.00
Neigh   | 0          | 0          | 0          |   0.0 |  0.00
Comm    | 4.9368e-05 | 4.9368e-05 | 4.9368e-05 |   0.0 |  0.48
Output  | 0          | 0          | 0          |   0.0 |  0.00
Modify  | 0          | 0          | 0          |   0.0 |  0.00
Other   |            | 0.000223   |            |       |  2.19

Nlocal:    1372 ave 1372 max 1372 min
Histogram: 1 0 0 0 0 0 0 0 0 0
Nghost:    3258 ave 3258 max 3258 min
Histogram: 1 0 0 0 0 0 0 0 0 0
Neighs:    58996 ave 58996 max 58996 min
Histogram: 1 0 0 0 0 0 0 0 0 0

Total # of neighbors = 58996
Ave neighs/atom = 43
Ave special neighs/atom = 0
Neighbor list builds = 0
Dangerous builds = 0
Displacing atoms ...
System init for write_restart ...
OMP_NUM_THREADS environment is not set. Defaulting to 1 thread. (../comm.cpp:88)
  using 1 OpenMP thread(s) per MPI task
Reading restart file ...
  restart file = 30 Apr 2019, LAMMPS = 30 Apr 2019
  restoring atom style full from restart
  orthogonal box = (0 0 0) to (28.3168 28.3168 28.3168)
  1 by 1 by 1 MPI processor grid
  pair style eam/fs stores no restart info
  1372 atoms
Finding 1-2 1-3 1-4 neighbors ...
  special bond factors lj:   0          0          0         
  special bond factors coul: 0          0          0         
  0 = max # of 1-2 neighbors
  0 = max # of 1-3 neighbors
  0 = max # of 1-4 neighbors
  1 = max # of special neighbors
  special bonds CPU = 0.000122726 secs
  read_restart CPU = 0.000514173 secs
Changing box ...
  triclinic box = (0 0 0) to (28.3168 28.3168 28.3168) with tilt (0 0 0)
Changing box ...
  triclinic box = (0 0 0) to (28.0337 28.3168 28.3168) with tilt (0 0 0)
  triclinic box = (0 0 0) to (28.0337 28.3168 28.3168) with tilt (0 0 0)
  triclinic box = (0 0 0) to (28.0337 28.3168 28.3168) with tilt (0 0 0)
Neighbor list info ...
  update every 1 steps, delay 0 steps, check yes
  max neighbors/atom: 2000, page size: 100000
  master list distance cutoff = 7.5
  ghost atom cutoff = 7.5
  1 neighbor lists, perpetual/occasional/extra = 1 0 0
  (1) pair eam/fs, perpetual
      attributes: half, newton on
      pair build: half/nsq/newton
      stencil: none
      bin: none
Setting up cg style minimization ...
  Unit style    : metal
  Current step  : 1
Per MPI rank memory allocation (min/avg/max) = 7.175 | 7.175 | 7.175 Mbytes
Step Temp PotEng Press Pxx Pyy Pzz Pxy Pxz Pyz Lx Ly Lz Volume 
       1            0   -4678.5696    8417.2663     12523.06    6364.3695    6364.3695 -1.1146064e-05 -1.1220142e-05 -1.5617135e-06     28.03365    28.316819    28.316819    22478.564 
       2            0   -4678.5696    8417.2659    12523.061    6364.3684    6364.3684 2.7030863e-06 -5.0783981e-07 -1.0994473e-05     28.03365    28.316819    28.316819    22478.564 
       3            0   -4678.5696    8417.2658    12523.061    6364.3683    6364.3683 4.0291872e-07 -5.5819684e-07 -8.8469421e-07     28.03365    28.316819    28.316819    22478.564 
       4            0   -4678.5696    8417.2658    12523.061    6364.3682    6364.3682 1.833207e-07 -2.3355646e-07 -2.8347546e-07     28.03365    28.316819    28.316819    22478.564 
       5            0   -4678.5696    8417.2658    12523.061    6364.3682    6364.3682 9.4683153e-08 -9.6306308e-08 -2.8738724e-07     28.03365    28.316819    28.316819    22478.564 
       6            0   -4678.5696    8417.2658    12523.061    6364.3682    6364.3682 3.0873745e-08 6.2365853e-09 -2.0740006e-07     28.03365    28.316819    28.316819    22478.564 
       7            0   -4678.5696    8417.2658    12523.061    6364.3682    6364.3682 1.2680342e-08 2.788087e-08 -1.0214954e-07     28.03365    28.316819    28.316819    22478.564 
       8            0   -4678.5696    8417.2658    12523.061    6364.3682    6364.3682 6.3477651e-09 2.5336269e-08 -5.70212e-08     28.03365    28.316819    28.316819    22478.564 
       9            0   -4678.5696    8417.2658    12523.061    6364.3682    6364.3682 1.0279057e-09 1.8738851e-08 -3.2175313e-08     28.03365    28.316819    28.316819    22478.564 
      10            0   -4678.5696    8417.2658    12523.061    6364.3682    6364.3682 7.1442061e-10 9.3851417e-09 -1.9827615e-08     28.03365    28.316819    28.316819    22478.564 
      11            0   -4678.5696    8417.2658    12523.061    6364.3682    6364.3682 -3.7591106e-11 2.5194343e-09 -9.0064352e-09     28.03365    28.316819    28.316819    22478.564 
      12            0   -4678.5696    8417.2658    12523.061    6364.3682    6364.3682 -6.5276955e-10 -1.1954571e-09 -4.3845298e-09     28.03365    28.316819    28.316819    22478.564 
      13            0   -4678.5696    8417.2658    12523.061    6364.3682    6364.3682 -3.5616721e-10 -1.7766683e-09 -3.7766973e-11     28.03365    28.316819    28.316819    22478.564 
      14            0   -4678.5696    8417.2658    12523.061    6364.3682    6364.3682 1.4149615e-10 -1.1524522e-09 8.0355061e-10     28.03365    28.316819    28.316819    22478.564 
      15            0   -4678.5696    8417.2658    12523.061    6364.3682    6364.3682 1.2752198e-10 -6.4396233e-10 6.8003944e-10     28.03365    28.316819    28.316819    22478.564 
      16            0   -4678.5696    8417.2658    12523.061    6364.3682    6364.3682 6.537933e-11 -4.0049916e-10 3.1255796e-10     28.03365    28.316819    28.316819    22478.564 
      17            0   -4678.5696    8417.2658    12523.061    6364.3682    6364.3682 3.8710623e-11 -1.6987268e-10 -2.2817211e-11     28.03365    28.316819    28.316819    22478.564 
      18            0   -4678.5696    8417.2658    12523.061    6364.3682    6364.3682 3.6612189e-11 -2.5055028e-11 -1.3558349e-10     28.03365    28.316819    28.316819    22478.564 
      19            0   -4678.5696    8417.2658    12523.061    6364.3682    6364.3682 2.7574317e-11 7.7861512e-12 -1.5620702e-10     28.03365    28.316819    28.316819    22478.564 
      20            0   -4678.5696    8417.2658    12523.061    6364.3682    6364.3682 3.1463129e-11 4.5480274e-11 -1.0501901e-10     28.03365    28.316819    28.316819    22478.564 
      21            0   -4678.5696    8417.2658    12523.061    6364.3682    6364.3682 4.3782638e-12 4.4512572e-11 -3.1844933e-11     28.03365    28.316819    28.316819    22478.564 
      22            0   -4678.5696    8417.2658    12523.061    6364.3682    6364.3682 6.2168222e-13 5.617961e-11 -2.0391816e-11     28.03365    28.316819    28.316819    22478.564 
      23            0   -4678.5696    8417.2658    12523.061    6364.3682    6364.3682 2.392806e-11 3.6202573e-11 -1.3967536e-11     28.03365    28.316819    28.316819    22478.564 
      24            0   -4678.5696    8417.2658    12523.061    6364.3682    6364.3682 -3.0357604e-12 -1.6972338e-11 -1.9873749e-11     28.03365    28.316819    28.316819    22478.564 
      25            0   -4678.5696    8417.2658    12523.061    6364.3682    6364.3682 2.7879732e-11 -2.0214705e-12 -1.9255036e-11     28.03365    28.316819    28.316819    22478.564 
      26            0   -4678.5696    8417.2658    12523.061    6364.3682    6364.3682 -1.1493197e-11 -7.0058847e-12 -3.0977696e-11     28.03365    28.316819    28.316819    22478.564 
      27            0   -4678.5696    8417.2658    12523.061    6364.3682    6364.3682 -4.9702361e-13 1.758086e-12 -1.4499204e-11     28.03365    28.316819    28.316819    22478.564 
      28            0   -4678.5696    8417.2658    12523.061    6364.3682    6364.3682 7.4021653e-12 2.6515937e-11 2.1386653e-11     28.03365    28.316819    28.316819    22478.564 
      29            0   -4678.5696    8417.2658    12523.061    6364.3682    6364.3682 4.6445379e-12 1.2169191e-11 8.2591528e-12     28.03365    28.316819    28.316819    22478.564 
      30            0   -4678.5696    8417.2658    12523.061    6364.3682    6364.3682 -2.434003e-12 1.2548022e-11 7.4248051e-12     28.03365    28.316819    28.316819    22478.564 
      31            0   -4678.5696    8417.2658    12523.061    6364.3682    6364.3682 4.0692844e-12 5.4596818e-12 -1.4185891e-11     28.03365    28.316819    28.316819    22478.564 
      32            0   -4678.5696    8417.2658    12523.061    6364.3682    6364.3682 4.1856049e-12 -1.5020499e-11 -3.422458e-13     28.03365    28.316819    28.316819    22478.564 
      33            0   -4678.5696    8417.2658    12523.061    6364.3682    6364.3682 1.5309635e-11 -2.503211e-11 -1.2012729e-11     28.03365    28.316819    28.316819    22478.564 
      34            0   -4678.5696    8417.2658    12523.061    6364.3682    6364.3682 -1.2331804e-11 4.2056365e-12 1.0608631e-13     28.03365    28.316819    28.316819    22478.564 
      35            0   -4678.5696    8417.2658    12523.061    6364.3682    6364.3682 2.5608355e-11 -2.1172373e-11 -2.6122208e-11     28.03365    28.316819    28.316819    22478.564 
      36            0   -4678.5696    8417.2658    12523.061    6364.3682    6364.3682 -1.1747345e-11 2.2135937e-11 -1.9917766e-11     28.03365    28.316819    28.316819    22478.564 
      37            0   -4678.5696    8417.2658    12523.061    6364.3682    6364.3682 2.147422e-11 -2.0729565e-11 2.8959831e-12     28.03365    28.316819    28.316819    22478.564 
      38            0   -4678.5696    8417.2658    12523.061    6364.3682    6364.3682 4.5205141e-12 4.0934417e-12 2.4096676e-11     28.03365    28.316819    28.316819    22478.564 
      39            0   -4678.5696    8417.2658    12523.061    6364.3682    6364.3682 -6.377095e-12 2.0403658e-12 2.161391e-11     28.03365    28.316819    28.316819    22478.564 
      40            0   -4678.5696    8417.2658    12523.061    6364.3682    6364.3682 2.108281e-11 -4.3649828e-12 3.3836339e-11     28.03365    28.316819    28.316819    22478.564 
      41            0   -4678.5696    8417.2658    12523.061    6364.3682    6364.3682 1.0196353e-11 -1.3570508e-11 -4.7882265e-12     28.03365    28.316819    28.316819    22478.564 
      42            0   -4678.5696    8417.2658    12523.061    6364.3682    6364.3682 -4.7600751e-12 1.3937221e-11 9.4807527e-12     28.03365    28.316819    28.316819    22478.564 
      43            0   -4678.5696    8417.2658    12523.061    6364.3682    6364.3682 -6.2509049e-12 3.9339257e-12 -4.4388094e-12     28.03365    28.316819    28.316819    22478.564 
      44            0   -4678.5696    8417.2658    12523.061    6364.3682    6364.3682 -2.8022663e-11 -2.7366926e-13 -2.0094082e-11     28.03365    28.316819    28.316819    22478.564 
      45            0   -4678.5696    8417.2658    12523.061    6364.3682    6364.3682 -4.8442302e-12 1.0889446e-11 -2.7505781e-12     28.03365    28.316819    28.316819    22478.564 
      46            0   -4678.5696    8417.2658    12523.061    6364.3682    6364.3682 -2.268459e-11 3.5017108e-11 -5.5592687e-12     28.03365    28.316819    28.316819    22478.564 
      47            0   -4678.5696    8417.2658    12523.061    6364.3682    6364.3682 -6.7933831e-13 -2.9876808e-11 -2.7265912e-12     28.03365    28.316819    28.316819    22478.564 
      48            0   -4678.5696    8417.2658    12523.061    6364.3682    6364.3682 1.1441967e-11 2.3292442e-11 1.9362111e-11     28.03365    28.316819    28.316819    22478.564 
      49            0   -4678.5696    8417.2658    12523.061    6364.3682    6364.3682 -7.1431877e-12 -9.8798177e-12 1.7645936e-11     28.03365    28.316819    28.316819    22478.564 
      50            0   -4678.5696    8417.2658    12523.061    6364.3682    6364.3682 -1.5088682e-11 5.1697695e-12 2.3326623e-11     28.03365    28.316819    28.316819    22478.564 
      51            0   -4678.5696    8417.2658    12523.061    6364.3682    6364.3682 -1.8177901e-12 4.8534334e-12 1.6129075e-11     28.03365    28.316819    28.316819    22478.564 
      52            0   -4678.5696    8417.2658    12523.061    6364.3682    6364.3682 -1.2887341e-11 1.4774528e-11 -1.2915822e-12     28.03365    28.316819    28.316819    22478.564 
Loop time of 0.260034 on 1 procs for 51 steps with 1372 atoms

99.7% CPU use with 1 MPI tasks x 1 OpenMP threads

Minimization stats:
  Stopping criterion = force tolerance
  Energy initial, next-to-last, final = 
        -4678.56955269     -4678.56955297     -4678.56955297
  Force two-norm initial, final = 0.00170226 8.00569e-11
  Force max component initial, final = 7.51332e-05 5.53298e-12
  Final line search alpha, max atom move = 1 5.53298e-12
  Iterations, force evaluations = 51 102

MPI task timing breakdown:
Section |  min time  |  avg time  |  max time  |%varavg| %total
---------------------------------------------------------------
Pair    | 0.25539    | 0.25539    | 0.25539    |   0.0 | 98.21
Bond    | 7.562e-06  | 7.562e-06  | 7.562e-06  |   0.0 |  0.00
Neigh   | 0          | 0          | 0          |   0.0 |  0.00
Comm    | 0.0011373  | 0.0011373  | 0.0011373  |   0.0 |  0.44
Output  | 0.0011161  | 0.0011161  | 0.0011161  |   0.0 |  0.43
Modify  | 0          | 0          | 0          |   0.0 |  0.00
Other   |            | 0.002381   |            |       |  0.92

Nlocal:    1372 ave 1372 max 1372 min
Histogram: 1 0 0 0 0 0 0 0 0 0
Nghost:    3258 ave 3258 max 3258 min
Histogram: 1 0 0 0 0 0 0 0 0 0
Neighs:    58996 ave 58996 max 58996 min
Histogram: 1 0 0 0 0 0 0 0 0 0

Total # of neighbors = 58996
Ave neighs/atom = 43
Ave special neighs/atom = 0
Neighbor list builds = 0
Dangerous builds = 0
OMP_NUM_THREADS environment is not set. Defaulting to 1 thread. (../comm.cpp:88)
  using 1 OpenMP thread(s) per MPI task
Reading restart file ...
  restart file = 30 Apr 2019, LAMMPS = 30 Apr 2019
  restoring atom style full from restart
  orthogonal box = (0 0 0) to (28.3168 28.3168 28.3168)
  1 by 1 by 1 MPI processor grid
  pair style eam/fs stores no restart info
  1372 atoms
Finding 1-2 1-3 1-4 neighbors ...
  special bond factors lj:   0          0          0         
  special bond factors coul: 0          0          0         
  0 = max # of 1-2 neighbors
  0 = max # of 1-3 neighbors
  0 = max # of 1-4 neighbors
  1 = max # of special neighbors
  special bonds CPU = 0.000122026 secs
  read_restart CPU = 0.000596696 secs
Changing box ...
  triclinic box = (0 0 0) to (28.3168 28.3168 28.3168) with tilt (0 0 0)
Changing box ...
  triclinic box = (0 0 0) to (28.6 28.3168 28.3168) with tilt (0 0 0)
  triclinic box = (0 0 0) to (28.6 28.3168 28.3168) with tilt (0 0 0)
  triclinic box = (0 0 0) to (28.6 28.3168 28.3168) with tilt (0 0 0)
Neighbor list info ...
  update every 1 steps, delay 0 steps, check yes
  max neighbors/atom: 2000, page size: 100000
  master list distance cutoff = 7.5
  ghost atom cutoff = 7.5
  1 neighbor lists, perpetual/occasional/extra = 1 0 0
  (1) pair eam/fs, perpetual
      attributes: half, newton on
      pair build: half/nsq/newton
      stencil: none
      bin: none
Setting up cg style minimization ...
  Unit style    : metal
  Current step  : 1
Per MPI rank memory allocation (min/avg/max) = 7.175 | 7.175 | 7.175 Mbytes
Step Temp PotEng Press Pxx Pyy Pzz Pxy Pxz Pyz Lx Ly Lz Volume 
       1            0   -4678.7056   -7213.2431    -9695.943   -5971.8932   -5971.8932 2.2559464e-05  2.40447e-05 -8.738391e-07    28.599987    28.316819    28.316819    22932.677 
       2            0   -4678.7056   -7213.2453   -9695.9447   -5971.8957   -5971.8957 -5.2786697e-06 1.8270077e-06 -1.0336257e-05    28.599987    28.316819    28.316819    22932.677 
       3            0   -4678.7056   -7213.2456   -9695.9449    -5971.896    -5971.896 -6.9545638e-07 1.0007528e-06 -4.7074747e-07    28.599987    28.316819    28.316819    22932.677 
       4            0   -4678.7056   -7213.2457   -9695.9449   -5971.8961   -5971.8961 -3.615957e-07 5.4011843e-07 -2.7162234e-07    28.599987    28.316819    28.316819    22932.677 
       5            0   -4678.7056   -7213.2457   -9695.9449   -5971.8961   -5971.8961 -2.1280788e-07 2.7335237e-07 -2.5674109e-07    28.599987    28.316819    28.316819    22932.677 
       6            0   -4678.7056   -7213.2457   -9695.9449   -5971.8961   -5971.8961 -7.3817809e-08 5.1370293e-08 -2.0540112e-07    28.599987    28.316819    28.316819    22932.677 
       7            0   -4678.7056   -7213.2457    -9695.945   -5971.8961   -5971.8961 -3.1015202e-08 -2.3256814e-08 -9.8507563e-08    28.599987    28.316819    28.316819    22932.677 
       8            0   -4678.7056   -7213.2457    -9695.945   -5971.8961   -5971.8961 -1.4903367e-08 -3.3595841e-08 -5.5469273e-08    28.599987    28.316819    28.316819    22932.677 
       9            0   -4678.7056   -7213.2457    -9695.945   -5971.8961   -5971.8961 -2.0603857e-09 -2.5720266e-08 -3.5473441e-08    28.599987    28.316819    28.316819    22932.677 
      10            0   -4678.7056   -7213.2457    -9695.945   -5971.8961   -5971.8961 -1.500294e-09 -1.2070611e-08 -2.3942514e-08    28.599987    28.316819    28.316819    22932.677 
      11            0   -4678.7056   -7213.2457    -9695.945   -5971.8961   -5971.8961 -8.5368179e-10 -2.512984e-09 -1.4952418e-08    28.599987    28.316819    28.316819    22932.677 
      12            0   -4678.7056   -7213.2457    -9695.945   -5971.8961   -5971.8961 8.1080503e-10 2.7923661e-09 -7.797569e-09    28.599987    28.316819    28.316819    22932.677 
      13            0   -4678.7056   -7213.2457    -9695.945   -5971.8961   -5971.8961 6.0747988e-10 3.4693352e-09 -6.5311894e-10    28.599987    28.316819    28.316819    22932.677 
      14            0   -4678.7056   -7213.2457    -9695.945   -5971.8961   -5971.8961 -5.6973018e-10 1.5807062e-09 1.5024371e-09    28.599987    28.316819    28.316819    22932.677 
      15            0   -4678.7056   -7213.2457    -9695.945   -5971.8961   -5971.8961 -7.0506874e-10 3.788383e-10 2.1454525e-09    28.599987    28.316819    28.316819    22932.677 
      16            0   -4678.7056   -7213.2457    -9695.945   -5971.8961   -5971.8961 -4.5232615e-10 4.2222488e-11 1.7733646e-09    28.599987    28.316819    28.316819    22932.677 
      17            0   -4678.7056   -7213.2457    -9695.945   -5971.8961   -5971.8961 -2.4127482e-10 -2.2054489e-10 1.0794179e-09    28.599987    28.316819    28.316819    22932.677 
      18            0   -4678.7056   -7213.2457    -9695.945   -5971.8961   -5971.8961 -1.1071527e-10 -2.9235759e-10 5.8786616e-10    28.599987    28.316819    28.316819    22932.677 
      19            0   -4678.7056   -7213.2457    -9695.945   -5971.8961   -5971.8961 -5.6752404e-11 -2.4796697e-10 2.8485482e-10    28.599987    28.316819    28.316819    22932.677 
      20            0   -4678.7056   -7213.2457    -9695.945   -5971.8961   -5971.8961 -3.159367e-11 -1.8802434e-10 6.7359149e-11    28.599987    28.316819    28.316819    22932.677 
      21            0   -4678.7056   -7213.2457    -9695.945   -5971.8961   -5971.8961 -2.8974211e-11 -1.1092348e-10 2.0635685e-11    28.599987    28.316819    28.316819    22932.677 
      22            0   -4678.7056   -7213.2457    -9695.945   -5971.8961   -5971.8961 -1.8854568e-11 -6.4509028e-11 1.2502994e-11    28.599987    28.316819    28.316819    22932.677 
      23            0   -4678.7056   -7213.2457    -9695.945   -5971.8961   -5971.8961 -2.3105029e-11 -2.264515e-11 5.5313546e-12    28.599987    28.316819    28.316819    22932.677 
      24            0   -4678.7056   -7213.2457    -9695.945   -5971.8961   -5971.8961 1.532773e-11 9.9257743e-12 7.0225419e-12    28.599987    28.316819    28.316819    22932.677 
      25            0   -4678.7056   -7213.2457    -9695.945   -5971.8961   -5971.8961 -1.6124744e-11 1.0850607e-11 9.1902414e-12    28.599987    28.316819    28.316819    22932.677 
      26            0   -4678.7056   -7213.2457    -9695.945   -5971.8961   -5971.8961 -1.2681595e-11 -2.3971926e-12 1.8699954e-11    28.599987    28.316819    28.316819    22932.677 
      27            0   -4678.7056   -7213.2457    -9695.945   -5971.8961   -5971.8961 -6.6375085e-12 1.0564561e-12 1.0236399e-11    28.599987    28.316819    28.316819    22932.677 
      28            0   -4678.7056   -7213.2457    -9695.945   -5971.8961   -5971.8961 -6.9207813e-12 -2.6684648e-13 2.007237e-12    28.599987    28.316819    28.316819    22932.677 
      29            0   -4678.7056   -7213.2457    -9695.945   -5971.8961   -5971.8961 1.0568864e-11 -7.8552583e-12 2.1572768e-13    28.599987    28.316819    28.316819    22932.677 
      30            0   -4678.7056   -7213.2457    -9695.945   -5971.8961   -5971.8961 3.2433966e-12 1.3561378e-11 1.0468367e-11    28.599987    28.316819    28.316819    22932.677 
      31            0   -4678.7056   -7213.2457    -9695.945   -5971.8961   -5971.8961 -1.2105705e-12 -1.0593031e-11 4.675958e-12    28.599987    28.316819    28.316819    22932.677 
      32            0   -4678.7056   -7213.2457    -9695.945   -5971.8961   -5971.8961 4.0690101e-12 -2.0905235e-11 4.4037533e-12    28.599987    28.316819    28.316819    22932.677 
      33            0   -4678.7056   -7213.2457    -9695.945   -5971.8961   -5971.8961 -1.5634828e-12 -3.3352281e-11 -1.276817e-11    28.599987    28.316819    28.316819    22932.677 
      34            0   -4678.7056   -7213.2457    -9695.945   -5971.8961   -5971.8961 1.5382962e-12 -1.2086015e-11 6.2529516e-12    28.599987    28.316819    28.316819    22932.677 
      35            0   -4678.7056   -7213.2457    -9695.945   -5971.8961   -5971.8961 8.8080985e-13 -4.0197689e-12 -1.1411267e-11    28.599987    28.316819    28.316819    22932.677 
      36            0   -4678.7056   -7213.2457    -9695.945   -5971.8961   -5971.8961 1.1650968e-11 1.4363133e-11 1.0182831e-12    28.599987    28.316819    28.316819    22932.677 
      37            0   -4678.7056   -7213.2457    -9695.945   -5971.8961   -5971.8961 -1.163502e-12 2.0490617e-12 1.3237923e-11    28.599987    28.316819    28.316819    22932.677 
      38            0   -4678.7056   -7213.2457    -9695.945   -5971.8961   -5971.8961 -1.0313238e-13 -9.3560503e-12 -4.3196437e-12    28.599987    28.316819    28.316819    22932.677 
      39            0   -4678.7056   -7213.2457    -9695.945   -5971.8961   -5971.8961 -1.3439284e-11 -3.4531916e-12 9.1669719e-12    28.599987    28.316819    28.316819    22932.677 
      40            0   -4678.7056   -7213.2457    -9695.945   -5971.8961   -5971.8961 -6.2798883e-12 4.5116595e-12 3.1748327e-12    28.599987    28.316819    28.316819    22932.677 
      41            0   -4678.7056   -7213.2457    -9695.945   -5971.8961   -5971.8961 9.8881183e-12 -2.517523e-11 6.5244291e-12    28.599987    28.316819    28.316819    22932.677 
      42            0   -4678.7056   -7213.2457    -9695.945   -5971.8961   -5971.8961 -7.4313404e-12 1.2700807e-11 -4.2556526e-12    28.599987    28.316819    28.316819    22932.677 
      43            0   -4678.7056   -7213.2457    -9695.945   -5971.8961   -5971.8961 -3.9576971e-13 -3.8648054e-12 -8.1159661e-12    28.599987    28.316819    28.316819    22932.677 
      44            0   -4678.7056   -7213.2457    -9695.945   -5971.8961   -5971.8961 -7.3321561e-12 -3.0101354e-11 -1.163766e-11    28.599987    28.316819    28.316819    22932.677 
      45            0   -4678.7056   -7213.2457    -9695.945   -5971.8961   -5971.8961 -5.5068622e-14 1.1536797e-11 1.5506457e-11    28.599987    28.316819    28.316819    22932.677 
      46            0   -4678.7056   -7213.2457    -9695.945   -5971.8961   -5971.8961 -6.0898129e-12 1.8235074e-11 3.2586999e-12    28.599987    28.316819    28.316819    22932.677 
      47            0   -4678.7056   -7213.2457    -9695.945   -5971.8961   -5971.8961 5.5161609e-13 1.6241394e-11 9.8660266e-12    28.599987    28.316819    28.316819    22932.677 
      48            0   -4678.7056   -7213.2457    -9695.945   -5971.8961   -5971.8961 2.7950688e-12 -1.6398038e-11 9.6595097e-12    28.599987    28.316819    28.316819    22932.677 
      49            0   -4678.7056   -7213.2457    -9695.945   -5971.8961   -5971.8961 -1.2336029e-11 2.3256123e-13 1.6880085e-12    28.599987    28.316819    28.316819    22932.677 
      50            0   -4678.7056   -7213.2457    -9695.945   -5971.8961   -5971.8961 1.9951281e-12 5.0567775e-12 -6.6519266e-12    28.599987    28.316819    28.316819    22932.677 
Loop time of 0.253063 on 1 procs for 49 steps with 1372 atoms

99.7% CPU use with 1 MPI tasks x 1 OpenMP threads

Minimization stats:
  Stopping criterion = force tolerance
  Energy initial, next-to-last, final = 
        -4678.70560281     -4678.70560307     -4678.70560307
  Force two-norm initial, final = 0.00153365 8.15446e-11
  Force max component initial, final = 6.50109e-05 4.32307e-12
  Final line search alpha, max atom move = 1 4.32307e-12
  Iterations, force evaluations = 49 98

MPI task timing breakdown:
Section |  min time  |  avg time  |  max time  |%varavg| %total
---------------------------------------------------------------
Pair    | 0.24864    | 0.24864    | 0.24864    |   0.0 | 98.25
Bond    | 5.488e-06  | 5.488e-06  | 5.488e-06  |   0.0 |  0.00
Neigh   | 0          | 0          | 0          |   0.0 |  0.00
Comm    | 0.0011025  | 0.0011025  | 0.0011025  |   0.0 |  0.44
Output  | 0.001065   | 0.001065   | 0.001065   |   0.0 |  0.42
Modify  | 0          | 0          | 0          |   0.0 |  0.00
Other   |            | 0.002249   |            |       |  0.89

Nlocal:    1372 ave 1372 max 1372 min
Histogram: 1 0 0 0 0 0 0 0 0 0
Nghost:    3258 ave 3258 max 3258 min
Histogram: 1 0 0 0 0 0 0 0 0 0
Neighs:    58996 ave 58996 max 58996 min
Histogram: 1 0 0 0 0 0 0 0 0 0

Total # of neighbors = 58996
Ave neighs/atom = 43
Ave special neighs/atom = 0
Neighbor list builds = 0
Dangerous builds = 0
OMP_NUM_THREADS environment is not set. Defaulting to 1 thread. (../comm.cpp:88)
  using 1 OpenMP thread(s) per MPI task
Reading restart file ...
  restart file = 30 Apr 2019, LAMMPS = 30 Apr 2019
  restoring atom style full from restart
  orthogonal box = (0 0 0) to (28.3168 28.3168 28.3168)
  1 by 1 by 1 MPI processor grid
  pair style eam/fs stores no restart info
  1372 atoms
Finding 1-2 1-3 1-4 neighbors ...
  special bond factors lj:   0          0          0         
  special bond factors coul: 0          0          0         
  0 = max # of 1-2 neighbors
  0 = max # of 1-3 neighbors
  0 = max # of 1-4 neighbors
  1 = max # of special neighbors
  special bonds CPU = 0.000126131 secs
  read_restart CPU = 0.000489581 secs
Changing box ...
  triclinic box = (0 0 0) to (28.3168 28.3168 28.3168) with tilt (0 0 0)
Changing box ...
  triclinic box = (0 0 0) to (28.3168 28.0337 28.3168) with tilt (0 0 0)
  triclinic box = (0 0 0) to (28.3168 28.0337 28.3168) with tilt (0 0 0)
Neighbor list info ...
  update every 1 steps, delay 0 steps, check yes
  max neighbors/atom: 2000, page size: 100000
  master list distance cutoff = 7.5
  ghost atom cutoff = 7.5
  1 neighbor lists, perpetual/occasional/extra = 1 0 0
  (1) pair eam/fs, perpetual
      attributes: half, newton on
      pair build: half/nsq/newton
      stencil: none
      bin: none
Setting up cg style minimization ...
  Unit style    : metal
  Current step  : 1
Per MPI rank memory allocation (min/avg/max) = 7.175 | 7.175 | 7.175 Mbytes
Step Temp PotEng Press Pxx Pyy Pzz Pxy Pxz Pyz Lx Ly Lz Volume 
       1            0   -4678.5696    8417.2662    6364.3694     12523.06    6364.3694 -1.13857e-05 4.8277157e-05 -6.6286587e-07    28.316819     28.03365    28.316819    22478.564 
       2            0   -4678.5696    8417.2658    6364.3684    12523.061    6364.3684 1.8852626e-06 4.443104e-06 2.6283923e-06    28.316819     28.03365    28.316819    22478.564 
       3            0   -4678.5696    8417.2658    6364.3683    12523.061    6364.3683 1.2969039e-07 1.7879401e-06 -6.2610109e-08    28.316819     28.03365    28.316819    22478.564 
       4            0   -4678.5696    8417.2658    6364.3682    12523.061    6364.3682 1.0307488e-07 8.7894766e-07 -1.2499797e-08    28.316819     28.03365    28.316819    22478.564 
       5            0   -4678.5696    8417.2658    6364.3682    12523.061    6364.3682 6.2008149e-08 3.988962e-07 3.3600553e-08    28.316819     28.03365    28.316819    22478.564 
       6            0   -4678.5696    8417.2658    6364.3682    12523.061    6364.3682 1.7495197e-08 7.2539595e-08 3.9472969e-08    28.316819     28.03365    28.316819    22478.564 
       7            0   -4678.5696    8417.2658    6364.3682    12523.061    6364.3682 3.5020066e-09 -2.8062495e-08 2.4329915e-08    28.316819     28.03365    28.316819    22478.564 
       8            0   -4678.5696    8417.2658    6364.3682    12523.061    6364.3682 -5.3539092e-10 -3.7421068e-08 1.6770575e-08    28.316819     28.03365    28.316819    22478.564 
       9            0   -4678.5696    8417.2658    6364.3682    12523.061    6364.3682 -2.3211265e-09 -3.0382996e-08 1.0716274e-08    28.316819     28.03365    28.316819    22478.564 
      10            0   -4678.5696    8417.2658    6364.3682    12523.061    6364.3682 -5.4315065e-10 -1.3570313e-08 6.350134e-09    28.316819     28.03365    28.316819    22478.564 
      11            0   -4678.5696    8417.2658    6364.3682    12523.061    6364.3682 -2.318615e-10 -2.1237122e-09 3.171628e-09    28.316819     28.03365    28.316819    22478.564 
      12            0   -4678.5696    8417.2658    6364.3682    12523.061    6364.3682 -6.2860278e-10 5.0509418e-09 8.063227e-10    28.316819     28.03365    28.316819    22478.564 
      13            0   -4678.5696    8417.2658    6364.3682    12523.061    6364.3682 -1.8382799e-10 6.015389e-09 -4.845021e-10    28.316819     28.03365    28.316819    22478.564 
      14            0   -4678.5696    8417.2658    6364.3682    12523.061    6364.3682 2.5927893e-10 3.4038494e-09 -5.236477e-10    28.316819     28.03365    28.316819    22478.564 
      15            0   -4678.5696    8417.2658    6364.3682    12523.061    6364.3682 2.4235279e-10 2.071693e-09 -4.4011104e-10    28.316819     28.03365    28.316819    22478.564 
      16            0   -4678.5696    8417.2658    6364.3682    12523.061    6364.3682 1.5372621e-10 1.3107398e-09 -3.0615816e-10    28.316819     28.03365    28.316819    22478.564 
      17            0   -4678.5696    8417.2658    6364.3682    12523.061    6364.3682 1.0338801e-10 5.553648e-10 -1.1497505e-10    28.316819     28.03365    28.316819    22478.564 
      18            0   -4678.5696    8417.2658    6364.3682    12523.061    6364.3682 3.2810514e-11 8.1781388e-11 -3.2659003e-11    28.316819     28.03365    28.316819    22478.564 
      19            0   -4678.5696    8417.2658    6364.3682    12523.061    6364.3682 3.5046245e-11 -1.3597101e-10 9.5754638e-12    28.316819     28.03365    28.316819    22478.564 
      20            0   -4678.5696    8417.2658    6364.3682    12523.061    6364.3682 4.1833968e-11 -1.48283e-10 1.8480284e-11    28.316819     28.03365    28.316819    22478.564 
      21            0   -4678.5696    8417.2658    6364.3682    12523.061    6364.3682 7.4705915e-12 -1.442594e-10 1.2618336e-11    28.316819     28.03365    28.316819    22478.564 
      22            0   -4678.5696    8417.2658    6364.3682    12523.061    6364.3682 4.3920002e-12 -6.9590598e-11 -1.4849116e-11    28.316819     28.03365    28.316819    22478.564 
      23            0   -4678.5696    8417.2658    6364.3682    12523.061    6364.3682 2.4695889e-11 3.1259942e-12 -1.2799103e-11    28.316819     28.03365    28.316819    22478.564 
      24            0   -4678.5696    8417.2658    6364.3682    12523.061    6364.3682 -1.3967107e-12 1.8382988e-11 -8.572466e-12    28.316819     28.03365    28.316819    22478.564 
      25            0   -4678.5696    8417.2658    6364.3682    12523.061    6364.3682 -1.3402395e-11 2.5150258e-12 5.6777194e-13    28.316819     28.03365    28.316819    22478.564 
      26            0   -4678.5696    8417.2658    6364.3682    12523.061    6364.3682 -4.6069381e-12 -2.8537609e-12 2.2527885e-13    28.316819     28.03365    28.316819    22478.564 
      27            0   -4678.5696    8417.2658    6364.3682    12523.061    6364.3682 -1.2859112e-11 -5.9920563e-12 -1.0783463e-11    28.316819     28.03365    28.316819    22478.564 
      28            0   -4678.5696    8417.2658    6364.3682    12523.061    6364.3682 1.3133245e-11 -9.2600922e-12 8.1857085e-12    28.316819     28.03365    28.316819    22478.564 
      29            0   -4678.5696    8417.2658    6364.3682    12523.061    6364.3682 -2.8146256e-12 -2.0812809e-11 1.2647516e-11    28.316819     28.03365    28.316819    22478.564 
      30            0   -4678.5696    8417.2658    6364.3682    12523.061    6364.3682 -9.4634919e-12 8.9200199e-13 -1.6418402e-11    28.316819     28.03365    28.316819    22478.564 
      31            0   -4678.5696    8417.2658    6364.3682    12523.061    6364.3682 -1.8590804e-12 -1.405378e-11 -1.46728e-11    28.316819     28.03365    28.316819    22478.564 
      32            0   -4678.5696    8417.2658    6364.3682    12523.061    6364.3682 -1.3400037e-11 -3.9565355e-11 7.1441338e-12    28.316819     28.03365    28.316819    22478.564 
      33            0   -4678.5696    8417.2658    6364.3682    12523.061    6364.3682 -4.5376482e-12 -2.3486663e-12 1.1948681e-11    28.316819     28.03365    28.316819    22478.564 
      34            0   -4678.5696    8417.2658    6364.3682    12523.061    6364.3682 -5.6455224e-12 1.5142593e-11 -2.377545e-11    28.316819     28.03365    28.316819    22478.564 
      35            0   -4678.5696    8417.2658    6364.3682    12523.061    6364.3682 -1.9954729e-11 1.7335908e-11 1.5319456e-12    28.316819     28.03365    28.316819    22478.564 
      36            0   -4678.5696    8417.2658    6364.3682    12523.061    6364.3682 1.2874489e-11 -7.5371025e-13 -7.0432406e-12    28.316819     28.03365    28.316819    22478.564 
      37            0   -4678.5696    8417.2658    6364.3682    12523.061    6364.3682 1.2752038e-11 -4.7714254e-12 1.0999345e-11    28.316819     28.03365    28.316819    22478.564 
      38            0   -4678.5696    8417.2658    6364.3682    12523.061    6364.3682 -7.7661289e-12 1.2682721e-12 2.3593694e-12    28.316819     28.03365    28.316819    22478.564 
      39            0   -4678.5696    8417.2658    6364.3682    12523.061    6364.3682 -1.5546586e-12 -1.2322899e-11 1.4595646e-11    28.316819     28.03365    28.316819    22478.564 
      40            0   -4678.5696    8417.2658    6364.3682    12523.061    6364.3682 6.8863324e-12 -1.5689155e-12 5.721242e-12    28.316819     28.03365    28.316819    22478.564 
      41            0   -4678.5696    8417.2658    6364.3682    12523.061    6364.3682 3.3488175e-12 1.3056484e-11 9.626405e-12    28.316819     28.03365    28.316819    22478.564 
      42            0   -4678.5696    8417.2658    6364.3682    12523.061    6364.3682 9.7416024e-12 -1.7814476e-11 -9.7035587e-13    28.316819     28.03365    28.316819    22478.564 
      43            0   -4678.5696    8417.2658    6364.3682    12523.061    6364.3682 -2.9125747e-12 -2.4516444e-12 -2.1653724e-11    28.316819     28.03365    28.316819    22478.564 
      44            0   -4678.5696    8417.2658    6364.3682    12523.061    6364.3682 -4.1813407e-12 -6.8091468e-12 1.3751159e-11    28.316819     28.03365    28.316819    22478.564 
      45            0   -4678.5696    8417.2658    6364.3682    12523.061    6364.3682 1.2995028e-11 1.1946159e-11 -1.6702288e-11    28.316819     28.03365    28.316819    22478.564 
      46            0   -4678.5696    8417.2658    6364.3682    12523.061    6364.3682 -9.7727446e-12 2.760514e-11 7.9881258e-12    28.316819     28.03365    28.316819    22478.564 
      47            0   -4678.5696    8417.2658    6364.3682    12523.061    6364.3682 2.1873851e-13 -6.5816578e-12 1.6793784e-11    28.316819     28.03365    28.316819    22478.564 
      48            0   -4678.5696    8417.2658    6364.3682    12523.061    6364.3682 2.0524937e-11 1.7169481e-11 7.2603589e-13    28.316819     28.03365    28.316819    22478.564 
      49            0   -4678.5696    8417.2658    6364.3682    12523.061    6364.3682 8.7693246e-12 2.7657088e-12 1.0667238e-11    28.316819     28.03365    28.316819    22478.564 
      50            0   -4678.5696    8417.2658    6364.3682    12523.061    6364.3682 5.8415736e-12 -4.7071483e-12 4.6885697e-12    28.316819     28.03365    28.316819    22478.564 
      51            0   -4678.5696    8417.2658    6364.3682    12523.061    6364.3682 1.494319e-11 -1.6421925e-11 1.9329222e-11    28.316819     28.03365    28.316819    22478.564 
Loop time of 0.253821 on 1 procs for 50 steps with 1372 atoms

99.7% CPU use with 1 MPI tasks x 1 OpenMP threads

Minimization stats:
  Stopping criterion = force tolerance
  Energy initial, next-to-last, final = 
        -4678.56955269     -4678.56955297     -4678.56955297
  Force two-norm initial, final = 0.00170266 9.42823e-11
  Force max component initial, final = 7.22474e-05 5.82645e-12
  Final line search alpha, max atom move = 1 5.82645e-12
  Iterations, force evaluations = 50 100

MPI task timing breakdown:
Section |  min time  |  avg time  |  max time  |%varavg| %total
---------------------------------------------------------------
Pair    | 0.24932    | 0.24932    | 0.24932    |   0.0 | 98.23
Bond    | 8.117e-06  | 8.117e-06  | 8.117e-06  |   0.0 |  0.00
Neigh   | 0          | 0          | 0          |   0.0 |  0.00
Comm    | 0.0011357  | 0.0011357  | 0.0011357  |   0.0 |  0.45
Output  | 0.0010789  | 0.0010789  | 0.0010789  |   0.0 |  0.43
Modify  | 0          | 0          | 0          |   0.0 |  0.00
Other   |            | 0.002281   |            |       |  0.90

Nlocal:    1372 ave 1372 max 1372 min
Histogram: 1 0 0 0 0 0 0 0 0 0
Nghost:    3258 ave 3258 max 3258 min
Histogram: 1 0 0 0 0 0 0 0 0 0
Neighs:    58996 ave 58996 max 58996 min
Histogram: 1 0 0 0 0 0 0 0 0 0

Total # of neighbors = 58996
Ave neighs/atom = 43
Ave special neighs/atom = 0
Neighbor list builds = 0
Dangerous builds = 0
OMP_NUM_THREADS environment is not set. Defaulting to 1 thread. (../comm.cpp:88)
  using 1 OpenMP thread(s) per MPI task
Reading restart file ...
  restart file = 30 Apr 2019, LAMMPS = 30 Apr 2019
  restoring atom style full from restart
  orthogonal box = (0 0 0) to (28.3168 28.3168 28.3168)
  1 by 1 by 1 MPI processor grid
  pair style eam/fs stores no restart info
  1372 atoms
Finding 1-2 1-3 1-4 neighbors ...
  special bond factors lj:   0          0          0         
  special bond factors coul: 0          0          0         
  0 = max # of 1-2 neighbors
  0 = max # of 1-3 neighbors
  0 = max # of 1-4 neighbors
  1 = max # of special neighbors
  special bonds CPU = 0.000127394 secs
  read_restart CPU = 0.000555388 secs
Changing box ...
  triclinic box = (0 0 0) to (28.3168 28.3168 28.3168) with tilt (0 0 0)
Changing box ...
  triclinic box = (0 0 0) to (28.3168 28.6 28.3168) with tilt (0 0 0)
  triclinic box = (0 0 0) to (28.3168 28.6 28.3168) with tilt (0 0 0)
Neighbor list info ...
  update every 1 steps, delay 0 steps, check yes
  max neighbors/atom: 2000, page size: 100000
  master list distance cutoff = 7.5
  ghost atom cutoff = 7.5
  1 neighbor lists, perpetual/occasional/extra = 1 0 0
  (1) pair eam/fs, perpetual
      attributes: half, newton on
      pair build: half/nsq/newton
      stencil: none
      bin: none
Setting up cg style minimization ...
  Unit style    : metal
  Current step  : 1
Per MPI rank memory allocation (min/avg/max) = 7.175 | 7.175 | 7.175 Mbytes
Step Temp PotEng Press Pxx Pyy Pzz Pxy Pxz Pyz Lx Ly Lz Volume 
       1            0   -4678.7056   -7213.2431   -5971.8932    -9695.943   -5971.8932 2.3263846e-05 4.7913075e-05 1.0914909e-06    28.316819    28.599987    28.316819    22932.677 
       2            0   -4678.7056   -7213.2454   -5971.8957   -9695.9447   -5971.8957 -5.0768323e-06 3.2650837e-06 -5.438775e-06    28.316819    28.599987    28.316819    22932.677 
       3            0   -4678.7056   -7213.2456    -5971.896   -9695.9449    -5971.896 -7.0897525e-07 2.3941563e-06 -2.5444038e-07    28.316819    28.599987    28.316819    22932.677 
       4            0   -4678.7056   -7213.2457   -5971.8961   -9695.9449   -5971.8961 -3.2547927e-07 1.0591752e-06 -1.0922429e-07    28.316819    28.599987    28.316819    22932.677 
       5            0   -4678.7056   -7213.2457   -5971.8961   -9695.9449   -5971.8961 -1.9604778e-07 5.442332e-07 -1.3634562e-07    28.316819    28.599987    28.316819    22932.677 
       6            0   -4678.7056   -7213.2457   -5971.8961   -9695.9449   -5971.8961 -7.4432373e-08 1.1838632e-07 -1.201059e-07    28.316819    28.599987    28.316819    22932.677 
       7            0   -4678.7056   -7213.2457   -5971.8961    -9695.945   -5971.8961 -3.5485218e-08 -2.0719493e-08 -6.219737e-08    28.316819    28.599987    28.316819    22932.677 
       8            0   -4678.7056   -7213.2457   -5971.8961    -9695.945   -5971.8961 -1.9472874e-08 -5.0552971e-08 -3.7535109e-08    28.316819    28.599987    28.316819    22932.677 
       9            0   -4678.7056   -7213.2457   -5971.8961    -9695.945   -5971.8961 -5.7428063e-09 -4.6301541e-08 -2.3714323e-08    28.316819    28.599987    28.316819    22932.677 
      10            0   -4678.7056   -7213.2457   -5971.8961    -9695.945   -5971.8961 -4.6693528e-09 -2.4732986e-08 -1.5039571e-08    28.316819    28.599987    28.316819    22932.677 
      11            0   -4678.7056   -7213.2457   -5971.8961    -9695.945   -5971.8961 -2.8975205e-09 -6.5757737e-09 -8.5447166e-09    28.316819    28.599987    28.316819    22932.677 
      12            0   -4678.7056   -7213.2457   -5971.8961    -9695.945   -5971.8961 -1.6103674e-10 4.3860927e-09 -4.439256e-09    28.316819    28.599987    28.316819    22932.677 
      13            0   -4678.7056   -7213.2457   -5971.8961    -9695.945   -5971.8961 6.3886543e-10 6.6464659e-09 -4.6116663e-10    28.316819    28.599987    28.316819    22932.677 
      14            0   -4678.7056   -7213.2457   -5971.8961    -9695.945   -5971.8961 -3.5400965e-10 3.6701538e-09 8.1928282e-10    28.316819    28.599987    28.316819    22932.677 
      15            0   -4678.7056   -7213.2457   -5971.8961    -9695.945   -5971.8961 -5.5464957e-10 1.6045253e-09 1.0695626e-09    28.316819    28.599987    28.316819    22932.677 
      16            0   -4678.7056   -7213.2457   -5971.8961    -9695.945   -5971.8961 -4.8347816e-10 9.4953489e-10 7.0394632e-10    28.316819    28.599987    28.316819    22932.677 
      17            0   -4678.7056   -7213.2457   -5971.8961    -9695.945   -5971.8961 -3.1067665e-10 3.3860903e-10  2.62408e-10    28.316819    28.599987    28.316819    22932.677 
      18            0   -4678.7056   -7213.2457   -5971.8961    -9695.945   -5971.8961 -1.9487435e-10 6.573657e-11 5.257744e-11    28.316819    28.599987    28.316819    22932.677 
      19            0   -4678.7056   -7213.2457   -5971.8961    -9695.945   -5971.8961 -1.0667267e-10 -1.0476481e-11 -2.2119116e-11    28.316819    28.599987    28.316819    22932.677 
      20            0   -4678.7056   -7213.2457   -5971.8961    -9695.945   -5971.8961 -6.8543299e-11 -6.8578172e-11 -4.9446965e-11    28.316819    28.599987    28.316819    22932.677 
      21            0   -4678.7056   -7213.2457   -5971.8961    -9695.945   -5971.8961 -2.9805008e-11 -5.2101639e-11 -3.7679142e-11    28.316819    28.599987    28.316819    22932.677 
      22            0   -4678.7056   -7213.2457   -5971.8961    -9695.945   -5971.8961 -2.7774074e-11 -5.7183985e-11 -1.1728072e-11    28.316819    28.599987    28.316819    22932.677 
      23            0   -4678.7056   -7213.2457   -5971.8961    -9695.945   -5971.8961 -1.6338384e-11 -1.7189092e-11 -1.4245056e-11    28.316819    28.599987    28.316819    22932.677 
      24            0   -4678.7056   -7213.2457   -5971.8961    -9695.945   -5971.8961 -1.7256926e-11 1.3486626e-11 3.8584228e-11    28.316819    28.599987    28.316819    22932.677 
      25            0   -4678.7056   -7213.2457   -5971.8961    -9695.945   -5971.8961 -6.1369467e-12 6.130486e-12 1.1690016e-11    28.316819    28.599987    28.316819    22932.677 
      26            0   -4678.7056   -7213.2457   -5971.8961    -9695.945   -5971.8961 -6.4624646e-12 4.2535125e-11 -8.6904319e-12    28.316819    28.599987    28.316819    22932.677 
      27            0   -4678.7056   -7213.2457   -5971.8961    -9695.945   -5971.8961 1.3205464e-12 3.1225901e-12 2.0453165e-11    28.316819    28.599987    28.316819    22932.677 
      28            0   -4678.7056   -7213.2457   -5971.8961    -9695.945   -5971.8961 2.7508954e-12 1.6447747e-12 2.4464488e-12    28.316819    28.599987    28.316819    22932.677 
      29            0   -4678.7056   -7213.2457   -5971.8961    -9695.945   -5971.8961 6.430013e-13 -1.1127869e-11 3.7905534e-11    28.316819    28.599987    28.316819    22932.677 
      30            0   -4678.7056   -7213.2457   -5971.8961    -9695.945   -5971.8961 4.6315183e-12 -4.9736032e-12 4.9813702e-12    28.316819    28.599987    28.316819    22932.677 
      31            0   -4678.7056   -7213.2457   -5971.8961    -9695.945   -5971.8961 -2.1936889e-12 1.117963e-11 1.0465943e-11    28.316819    28.599987    28.316819    22932.677 
      32            0   -4678.7056   -7213.2457   -5971.8961    -9695.945   -5971.8961 -5.7543923e-12 -1.3550721e-11 1.4669482e-12    28.316819    28.599987    28.316819    22932.677 
      33            0   -4678.7056   -7213.2457   -5971.8961    -9695.945   -5971.8961 -6.6857687e-12 7.3006695e-12 1.1312856e-11    28.316819    28.599987    28.316819    22932.677 
      34            0   -4678.7056   -7213.2457   -5971.8961    -9695.945   -5971.8961 4.8011909e-12 -1.8681821e-11 9.2830771e-12    28.316819    28.599987    28.316819    22932.677 
      35            0   -4678.7056   -7213.2457   -5971.8961    -9695.945   -5971.8961 -5.7400744e-12 -6.0586872e-12 -9.0707428e-12    28.316819    28.599987    28.316819    22932.677 
      36            0   -4678.7056   -7213.2457   -5971.8961    -9695.945   -5971.8961 1.0592968e-11 4.779046e-12 -1.3453893e-11    28.316819    28.599987    28.316819    22932.677 
      37            0   -4678.7056   -7213.2457   -5971.8961    -9695.945   -5971.8961 -1.671657e-12 1.7458171e-11 1.0815228e-11    28.316819    28.599987    28.316819    22932.677 
      38            0   -4678.7056   -7213.2457   -5971.8961    -9695.945   -5971.8961 7.7182583e-12 -2.2337707e-12 3.7832332e-12    28.316819    28.599987    28.316819    22932.677 
      39            0   -4678.7056   -7213.2457   -5971.8961    -9695.945   -5971.8961 -8.3066968e-13 -2.6034801e-12 6.7626991e-12    28.316819    28.599987    28.316819    22932.677 
      40            0   -4678.7056   -7213.2457   -5971.8961    -9695.945   -5971.8961 -7.3900784e-12 2.2576024e-11 2.2058761e-11    28.316819    28.599987    28.316819    22932.677 
      41            0   -4678.7056   -7213.2457   -5971.8961    -9695.945   -5971.8961 9.9430222e-12 -1.6466396e-11 1.3426018e-12    28.316819    28.599987    28.316819    22932.677 
      42            0   -4678.7056   -7213.2457   -5971.8961    -9695.945   -5971.8961 -2.7196155e-12 -6.1511827e-12 -3.2479377e-11    28.316819    28.599987    28.316819    22932.677 
      43            0   -4678.7056   -7213.2457   -5971.8961    -9695.945   -5971.8961 -1.2227728e-12 -5.2433889e-12 1.2285328e-11    28.316819    28.599987    28.316819    22932.677 
      44            0   -4678.7056   -7213.2457   -5971.8961    -9695.945   -5971.8961 5.0101585e-12 -6.0670671e-12 -2.3264412e-11    28.316819    28.599987    28.316819    22932.677 
      45            0   -4678.7056   -7213.2457   -5971.8961    -9695.945   -5971.8961 -5.8843565e-12 2.6041133e-12 1.8794728e-11    28.316819    28.599987    28.316819    22932.677 
      46            0   -4678.7056   -7213.2457   -5971.8961    -9695.945   -5971.8961 -8.7204097e-12 1.1628862e-11 -2.2523181e-11    28.316819    28.599987    28.316819    22932.677 
      47            0   -4678.7056   -7213.2457   -5971.8961    -9695.945   -5971.8961 -1.9508018e-12 -1.6188041e-11 -3.7182725e-12    28.316819    28.599987    28.316819    22932.677 
      48            0   -4678.7056   -7213.2457   -5971.8961    -9695.945   -5971.8961 -3.0028023e-12 -2.2018891e-11 8.7391524e-12    28.316819    28.599987    28.316819    22932.677 
      49            0   -4678.7056   -7213.2457   -5971.8961    -9695.945   -5971.8961 -2.7905842e-12 -3.2265464e-12 -2.3970496e-11    28.316819    28.599987    28.316819    22932.677 
      50            0   -4678.7056   -7213.2457   -5971.8961    -9695.945   -5971.8961 -8.7397579e-13 -3.5049065e-13 9.0179017e-12    28.316819    28.599987    28.316819    22932.677 
Loop time of 0.249482 on 1 procs for 49 steps with 1372 atoms

99.7% CPU use with 1 MPI tasks x 1 OpenMP threads

Minimization stats:
  Stopping criterion = force tolerance
  Energy initial, next-to-last, final = 
        -4678.70560281     -4678.70560307     -4678.70560307
  Force two-norm initial, final = 0.00153344 9.43992e-11
  Force max component initial, final = 6.56535e-05 5.5671e-12
  Final line search alpha, max atom move = 1 5.5671e-12
  Iterations, force evaluations = 49 98

MPI task timing breakdown:
Section |  min time  |  avg time  |  max time  |%varavg| %total
---------------------------------------------------------------
Pair    | 0.24493    | 0.24493    | 0.24493    |   0.0 | 98.18
Bond    | 7.471e-06  | 7.471e-06  | 7.471e-06  |   0.0 |  0.00
Neigh   | 0          | 0          | 0          |   0.0 |  0.00
Comm    | 0.0011064  | 0.0011064  | 0.0011064  |   0.0 |  0.44
Output  | 0.0010727  | 0.0010727  | 0.0010727  |   0.0 |  0.43
Modify  | 0          | 0          | 0          |   0.0 |  0.00
Other   |            | 0.002362   |            |       |  0.95

Nlocal:    1372 ave 1372 max 1372 min
Histogram: 1 0 0 0 0 0 0 0 0 0
Nghost:    3258 ave 3258 max 3258 min
Histogram: 1 0 0 0 0 0 0 0 0 0
Neighs:    58996 ave 58996 max 58996 min
Histogram: 1 0 0 0 0 0 0 0 0 0

Total # of neighbors = 58996
Ave neighs/atom = 43
Ave special neighs/atom = 0
Neighbor list builds = 0
Dangerous builds = 0
OMP_NUM_THREADS environment is not set. Defaulting to 1 thread. (../comm.cpp:88)
  using 1 OpenMP thread(s) per MPI task
Reading restart file ...
  restart file = 30 Apr 2019, LAMMPS = 30 Apr 2019
  restoring atom style full from restart
  orthogonal box = (0 0 0) to (28.3168 28.3168 28.3168)
  1 by 1 by 1 MPI processor grid
  pair style eam/fs stores no restart info
  1372 atoms
Finding 1-2 1-3 1-4 neighbors ...
  special bond factors lj:   0          0          0         
  special bond factors coul: 0          0          0         
  0 = max # of 1-2 neighbors
  0 = max # of 1-3 neighbors
  0 = max # of 1-4 neighbors
  1 = max # of special neighbors
  special bonds CPU = 0.000127766 secs
  read_restart CPU = 0.000542789 secs
Changing box ...
  triclinic box = (0 0 0) to (28.3168 28.3168 28.3168) with tilt (0 0 0)
Changing box ...
  triclinic box = (0 0 0) to (28.3168 28.3168 28.0337) with tilt (0 0 0)
Neighbor list info ...
  update every 1 steps, delay 0 steps, check yes
  max neighbors/atom: 2000, page size: 100000
  master list distance cutoff = 7.5
  ghost atom cutoff = 7.5
  1 neighbor lists, perpetual/occasional/extra = 1 0 0
  (1) pair eam/fs, perpetual
      attributes: half, newton on
      pair build: half/nsq/newton
      stencil: none
      bin: none
Setting up cg style minimization ...
  Unit style    : metal
  Current step  : 1
Per MPI rank memory allocation (min/avg/max) = 7.175 | 7.175 | 7.175 Mbytes
Step Temp PotEng Press Pxx Pyy Pzz Pxy Pxz Pyz Lx Ly Lz Volume 
       1            0   -4678.5696    8417.2663    6364.3695    6364.3695     12523.06 4.5687093e-05 -1.0458552e-05 -9.6832929e-07    28.316819    28.316819     28.03365    22478.564 
       2            0   -4678.5696    8417.2659    6364.3684    6364.3684    12523.061 -7.4570896e-06 -5.2030206e-07 1.9471954e-06    28.316819    28.316819     28.03365    22478.564 
       3            0   -4678.5696    8417.2658    6364.3683    6364.3683    12523.061 -1.3491878e-06 -5.5782595e-07 5.8173429e-08    28.316819    28.316819     28.03365    22478.564 
       4            0   -4678.5696    8417.2658    6364.3682    6364.3682    12523.061 -6.6878971e-07 -2.6274157e-07 1.5728057e-07    28.316819    28.316819     28.03365    22478.564 
       5            0   -4678.5696    8417.2658    6364.3682    6364.3682    12523.061 -3.4155624e-07 -1.3524777e-07 1.0308699e-07    28.316819    28.316819     28.03365    22478.564 
       6            0   -4678.5696    8417.2658    6364.3682    6364.3682    12523.061 -1.1227769e-07 -3.1052283e-08 5.7021679e-08    28.316819    28.316819     28.03365    22478.564 
       7            0   -4678.5696    8417.2658    6364.3682    6364.3682    12523.061 -4.7571041e-08 1.0220899e-09 2.4994285e-08    28.316819    28.316819     28.03365    22478.564 
       8            0   -4678.5696    8417.2658    6364.3682    6364.3682    12523.061 -2.553371e-08 7.1416612e-09 1.2547652e-08    28.316819    28.316819     28.03365    22478.564 
       9            0   -4678.5696    8417.2658    6364.3682    6364.3682    12523.061 -6.4364841e-09 5.4979046e-09 8.2540197e-09    28.316819    28.316819     28.03365    22478.564 
      10            0   -4678.5696    8417.2658    6364.3682    6364.3682    12523.061 -4.9041166e-09 1.1559248e-09  5.36677e-09    28.316819    28.316819     28.03365    22478.564 
      11            0   -4678.5696    8417.2658    6364.3682    6364.3682    12523.061 -4.3304889e-10 -7.6324437e-10 3.1559695e-09    28.316819    28.316819     28.03365    22478.564 
      12            0   -4678.5696    8417.2658    6364.3682    6364.3682    12523.061 2.3346025e-09 -1.584348e-09 1.3578147e-09    28.316819    28.316819     28.03365    22478.564 
      13            0   -4678.5696    8417.2658    6364.3682    6364.3682    12523.061 1.9980904e-09 -1.1505304e-09 -9.3663329e-11    28.316819    28.316819     28.03365    22478.564 
      14            0   -4678.5696    8417.2658    6364.3682    6364.3682    12523.061 1.5099898e-10 -2.8856921e-10 -2.2701579e-10    28.316819    28.316819     28.03365    22478.564 
      15            0   -4678.5696    8417.2658    6364.3682    6364.3682    12523.061 -1.6928462e-10 3.702071e-11 -1.1058372e-10    28.316819    28.316819     28.03365    22478.564 
      16            0   -4678.5696    8417.2658    6364.3682    6364.3682    12523.061 -9.895392e-12 8.1863373e-11 -4.7677016e-12    28.316819    28.316819     28.03365    22478.564 
      17            0   -4678.5696    8417.2658    6364.3682    6364.3682    12523.061 1.5926539e-11 9.3774557e-11 7.0138134e-12    28.316819    28.316819     28.03365    22478.564 
      18            0   -4678.5696    8417.2658    6364.3682    6364.3682    12523.061 -2.7787012e-11 9.4394915e-11 6.1306263e-11    28.316819    28.316819     28.03365    22478.564 
      19            0   -4678.5696    8417.2658    6364.3682    6364.3682    12523.061 -5.3895907e-11 6.5592815e-11 2.8590136e-11    28.316819    28.316819     28.03365    22478.564 
      20            0   -4678.5696    8417.2658    6364.3682    6364.3682    12523.061 -9.919438e-11 3.9950825e-11 -2.3982924e-11    28.316819    28.316819     28.03365    22478.564 
      21            0   -4678.5696    8417.2658    6364.3682    6364.3682    12523.061 -7.80768e-11 1.6749913e-11 -1.5645381e-11    28.316819    28.316819     28.03365    22478.564 
      22            0   -4678.5696    8417.2658    6364.3682    6364.3682    12523.061 -6.5845883e-11 2.6323071e-11 -5.4057032e-13    28.316819    28.316819     28.03365    22478.564 
      23            0   -4678.5696    8417.2658    6364.3682    6364.3682    12523.061 -4.139468e-11 -1.6551445e-11 -3.2230949e-11    28.316819    28.316819     28.03365    22478.564 
      24            0   -4678.5696    8417.2658    6364.3682    6364.3682    12523.061 -3.284079e-11 -2.0730378e-11 -6.8088121e-12    28.316819    28.316819     28.03365    22478.564 
      25            0   -4678.5696    8417.2658    6364.3682    6364.3682    12523.061 -1.4626392e-12 1.0536479e-11 -1.6640466e-11    28.316819    28.316819     28.03365    22478.564 
      26            0   -4678.5696    8417.2658    6364.3682    6364.3682    12523.061 2.1954456e-12 -1.5278608e-11 -1.6695363e-11    28.316819    28.316819     28.03365    22478.564 
      27            0   -4678.5696    8417.2658    6364.3682    6364.3682    12523.061 -1.7714078e-11 -9.1756739e-12 -1.7255222e-11    28.316819    28.316819     28.03365    22478.564 
      28            0   -4678.5696    8417.2658    6364.3682    6364.3682    12523.061 -4.0142386e-12 -1.1105256e-11 -2.5976803e-11    28.316819    28.316819     28.03365    22478.564 
      29            0   -4678.5696    8417.2658    6364.3682    6364.3682    12523.061 5.8880429e-12 -2.0694483e-11 1.6188177e-11    28.316819    28.316819     28.03365    22478.564 
      30            0   -4678.5696    8417.2658    6364.3682    6364.3682    12523.061 1.9985631e-13 7.8808089e-12 -4.9939696e-12    28.316819    28.316819     28.03365    22478.564 
      31            0   -4678.5696    8417.2658    6364.3682    6364.3682    12523.061 2.514645e-12 -1.1227199e-11 1.6909514e-12    28.316819    28.316819     28.03365    22478.564 
      32            0   -4678.5696    8417.2658    6364.3682    6364.3682    12523.061 1.3086242e-11 -2.7765112e-11 -1.4130498e-11    28.316819    28.316819     28.03365    22478.564 
      33            0   -4678.5696    8417.2658    6364.3682    6364.3682    12523.061 -6.2175461e-13 1.8319241e-11 6.1485546e-12    28.316819    28.316819     28.03365    22478.564 
      34            0   -4678.5696    8417.2658    6364.3682    6364.3682    12523.061 -1.2173208e-12 3.9621379e-12 3.2326896e-11    28.316819    28.316819     28.03365    22478.564 
      35            0   -4678.5696    8417.2658    6364.3682    6364.3682    12523.061 -7.6778129e-12 -3.1227982e-11 6.6097457e-12    28.316819    28.316819     28.03365    22478.564 
      36            0   -4678.5696    8417.2658    6364.3682    6364.3682    12523.061 4.6105589e-12 -2.0435433e-11 2.2084004e-11    28.316819    28.316819     28.03365    22478.564 
      37            0   -4678.5696    8417.2658    6364.3682    6364.3682    12523.061 -5.7098254e-12 -7.4365341e-13 -3.3136516e-12    28.316819    28.316819     28.03365    22478.564 
      38            0   -4678.5696    8417.2658    6364.3682    6364.3682    12523.061 -1.1846639e-11 1.7160875e-11 -4.0241083e-12    28.316819    28.316819     28.03365    22478.564 
      39            0   -4678.5696    8417.2658    6364.3682    6364.3682    12523.061 1.4524934e-11 -1.3212317e-11 -1.8079184e-11    28.316819    28.316819     28.03365    22478.564 
      40            0   -4678.5696    8417.2658    6364.3682    6364.3682    12523.061 -5.305579e-12 -7.2229925e-13 2.3769268e-11    28.316819    28.316819     28.03365    22478.564 
      41            0   -4678.5696    8417.2658    6364.3682    6364.3682    12523.061 1.1775551e-12 -1.974419e-13 -3.7486054e-11    28.316819    28.316819     28.03365    22478.564 
      42            0   -4678.5696    8417.2658    6364.3682    6364.3682    12523.061 6.2882268e-13 1.5677006e-11 -1.5851124e-13    28.316819    28.316819     28.03365    22478.564 
      43            0   -4678.5696    8417.2658    6364.3682    6364.3682    12523.061 8.8508661e-12 -1.1673109e-11 -1.0195908e-11    28.316819    28.316819     28.03365    22478.564 
      44            0   -4678.5696    8417.2658    6364.3682    6364.3682    12523.061 -3.6058491e-13 1.3033482e-11 1.3818422e-12    28.316819    28.316819     28.03365    22478.564 
      45            0   -4678.5696    8417.2658    6364.3682    6364.3682    12523.061 -6.8342112e-13 5.816028e-12 8.4332432e-12    28.316819    28.316819     28.03365    22478.564 
      46            0   -4678.5696    8417.2658    6364.3682    6364.3682    12523.061 -6.8950091e-12 -1.4664128e-11 -1.7777493e-12    28.316819    28.316819     28.03365    22478.564 
      47            0   -4678.5696    8417.2658    6364.3682    6364.3682    12523.061 1.3850322e-13 -1.2640516e-12 6.6915978e-13    28.316819    28.316819     28.03365    22478.564 
      48            0   -4678.5696    8417.2658    6364.3682    6364.3682    12523.061 1.6977393e-11 -2.5757563e-11 -8.4428874e-12    28.316819    28.316819     28.03365    22478.564 
      49            0   -4678.5696    8417.2658    6364.3682    6364.3682    12523.061 4.6236427e-12 3.089772e-11 4.4321326e-12    28.316819    28.316819     28.03365    22478.564 
      50            0   -4678.5696    8417.2658    6364.3682    6364.3682    12523.061 -2.6078987e-11 3.6809427e-12 -9.3835688e-12    28.316819    28.316819     28.03365    22478.564 
      51            0   -4678.5696    8417.2658    6364.3682    6364.3682    12523.061 -7.5198091e-12 1.3458832e-11 2.6672175e-11    28.316819    28.316819     28.03365    22478.564 
      52            0   -4678.5696    8417.2658    6364.3682    6364.3682    12523.061 1.1465656e-12 -5.0508683e-12 -2.255657e-11    28.316819    28.316819     28.03365    22478.564 
Loop time of 0.256921 on 1 procs for 51 steps with 1372 atoms

99.7% CPU use with 1 MPI tasks x 1 OpenMP threads

Minimization stats:
  Stopping criterion = force tolerance
  Energy initial, next-to-last, final = 
        -4678.56955269     -4678.56955297     -4678.56955297
  Force two-norm initial, final = 0.00170341 8.17006e-11
  Force max component initial, final = 7.10527e-05 4.67245e-12
  Final line search alpha, max atom move = 1 4.67245e-12
  Iterations, force evaluations = 51 102

MPI task timing breakdown:
Section |  min time  |  avg time  |  max time  |%varavg| %total
---------------------------------------------------------------
Pair    | 0.25222    | 0.25222    | 0.25222    |   0.0 | 98.17
Bond    | 5.643e-06  | 5.643e-06  | 5.643e-06  |   0.0 |  0.00
Neigh   | 0          | 0          | 0          |   0.0 |  0.00
Comm    | 0.0011742  | 0.0011742  | 0.0011742  |   0.0 |  0.46
Output  | 0.0011099  | 0.0011099  | 0.0011099  |   0.0 |  0.43
Modify  | 0          | 0          | 0          |   0.0 |  0.00
Other   |            | 0.002411   |            |       |  0.94

Nlocal:    1372 ave 1372 max 1372 min
Histogram: 1 0 0 0 0 0 0 0 0 0
Nghost:    3258 ave 3258 max 3258 min
Histogram: 1 0 0 0 0 0 0 0 0 0
Neighs:    58996 ave 58996 max 58996 min
Histogram: 1 0 0 0 0 0 0 0 0 0

Total # of neighbors = 58996
Ave neighs/atom = 43
Ave special neighs/atom = 0
Neighbor list builds = 0
Dangerous builds = 0
OMP_NUM_THREADS environment is not set. Defaulting to 1 thread. (../comm.cpp:88)
  using 1 OpenMP thread(s) per MPI task
Reading restart file ...
  restart file = 30 Apr 2019, LAMMPS = 30 Apr 2019
  restoring atom style full from restart
  orthogonal box = (0 0 0) to (28.3168 28.3168 28.3168)
  1 by 1 by 1 MPI processor grid
  pair style eam/fs stores no restart info
  1372 atoms
Finding 1-2 1-3 1-4 neighbors ...
  special bond factors lj:   0          0          0         
  special bond factors coul: 0          0          0         
  0 = max # of 1-2 neighbors
  0 = max # of 1-3 neighbors
  0 = max # of 1-4 neighbors
  1 = max # of special neighbors
  special bonds CPU = 0.000120976 secs
  read_restart CPU = 0.000551749 secs
Changing box ...
  triclinic box = (0 0 0) to (28.3168 28.3168 28.3168) with tilt (0 0 0)
Changing box ...
  triclinic box = (0 0 0) to (28.3168 28.3168 28.6) with tilt (0 0 0)
Neighbor list info ...
  update every 1 steps, delay 0 steps, check yes
  max neighbors/atom: 2000, page size: 100000
  master list distance cutoff = 7.5
  ghost atom cutoff = 7.5
  1 neighbor lists, perpetual/occasional/extra = 1 0 0
  (1) pair eam/fs, perpetual
      attributes: half, newton on
      pair build: half/nsq/newton
      stencil: none
      bin: none
Setting up cg style minimization ...
  Unit style    : metal
  Current step  : 1
Per MPI rank memory allocation (min/avg/max) = 7.175 | 7.175 | 7.175 Mbytes
Step Temp PotEng Press Pxx Pyy Pzz Pxy Pxz Pyz Lx Ly Lz Volume 
       1            0   -4678.7056   -7213.2431   -5971.8932   -5971.8932    -9695.943 4.4949571e-05 2.2762544e-05 -9.2366558e-07    28.316819    28.316819    28.599987    22932.677 
       2            0   -4678.7056   -7213.2453   -5971.8957   -5971.8957   -9695.9447 -1.0184735e-05 1.0952313e-06 -6.1945752e-06    28.316819    28.316819    28.599987    22932.677 
       3            0   -4678.7056   -7213.2456    -5971.896    -5971.896   -9695.9449 -1.6010859e-06 1.1132799e-06 -3.3773694e-07    28.316819    28.316819    28.599987    22932.677 
       4            0   -4678.7056   -7213.2457   -5971.8961   -5971.8961   -9695.9449 -7.3733928e-07 5.8234282e-07 -8.4837094e-08    28.316819    28.316819    28.599987    22932.677 
       5            0   -4678.7056   -7213.2457   -5971.8961   -5971.8961   -9695.9449 -4.056945e-07 2.8995278e-07 -1.2574079e-07    28.316819    28.316819    28.599987    22932.677 
       6            0   -4678.7056   -7213.2457   -5971.8961   -5971.8961   -9695.9449 -1.3709278e-07 5.6182692e-08 -1.1389615e-07    28.316819    28.316819    28.599987    22932.677 
       7            0   -4678.7056   -7213.2457   -5971.8961   -5971.8961    -9695.945 -4.9378395e-08 -2.2645243e-08 -6.2655664e-08    28.316819    28.316819    28.599987    22932.677 
       8            0   -4678.7056   -7213.2457   -5971.8961   -5971.8961    -9695.945 -2.0806679e-08 -3.7518254e-08 -4.0867236e-08    28.316819    28.316819    28.599987    22932.677 
       9            0   -4678.7056   -7213.2457   -5971.8961   -5971.8961    -9695.945 -4.8270709e-10 -3.3383132e-08 -2.7609126e-08    28.316819    28.316819    28.599987    22932.677 
      10            0   -4678.7056   -7213.2457   -5971.8961   -5971.8961    -9695.945 -2.8133127e-09 -1.8893853e-08 -1.8406689e-08    28.316819    28.316819    28.599987    22932.677 
      11            0   -4678.7056   -7213.2457   -5971.8961   -5971.8961    -9695.945 -3.070983e-09 -7.3066886e-09 -1.1076961e-08    28.316819    28.316819    28.599987    22932.677 
      12            0   -4678.7056   -7213.2457   -5971.8961   -5971.8961    -9695.945 5.6017241e-10 -1.7056598e-10 -5.7943402e-09    28.316819    28.316819    28.599987    22932.677 
      13            0   -4678.7056   -7213.2457   -5971.8961   -5971.8961    -9695.945 1.5604975e-09 2.7269165e-09 -7.9443729e-10    28.316819    28.316819    28.599987    22932.677 
      14            0   -4678.7056   -7213.2457   -5971.8961   -5971.8961    -9695.945 -4.8400332e-10 2.4097602e-09 8.7254889e-10    28.316819    28.316819    28.599987    22932.677 
      15            0   -4678.7056   -7213.2457   -5971.8961   -5971.8961    -9695.945 -1.1692952e-09 1.6281778e-09 1.0656208e-09    28.316819    28.316819    28.599987    22932.677 
      16            0   -4678.7056   -7213.2457   -5971.8961   -5971.8961    -9695.945 -1.089146e-09 1.2850717e-09 7.2485542e-10    28.316819    28.316819    28.599987    22932.677 
      17            0   -4678.7056   -7213.2457   -5971.8961   -5971.8961    -9695.945 -8.0962445e-10 8.3846525e-10 3.0270689e-10    28.316819    28.316819    28.599987    22932.677 
      18            0   -4678.7056   -7213.2457   -5971.8961   -5971.8961    -9695.945 -5.3318706e-10 3.9200885e-10 1.5940554e-10    28.316819    28.316819    28.599987    22932.677 
      19            0   -4678.7056   -7213.2457   -5971.8961   -5971.8961    -9695.945 -2.8514458e-10 1.6874043e-10 3.2680077e-11    28.316819    28.316819    28.599987    22932.677 
      20            0   -4678.7056   -7213.2457   -5971.8961   -5971.8961    -9695.945 -1.5410703e-10 7.6259632e-12 -2.2383807e-11    28.316819    28.316819    28.599987    22932.677 
      21            0   -4678.7056   -7213.2457   -5971.8961   -5971.8961    -9695.945 -9.795683e-11 5.1714757e-12 -3.9806847e-11    28.316819    28.316819    28.599987    22932.677 
      22            0   -4678.7056   -7213.2457   -5971.8961   -5971.8961    -9695.945 -3.538409e-11 -3.5325154e-11 -2.9406833e-12    28.316819    28.316819    28.599987    22932.677 
      23            0   -4678.7056   -7213.2457   -5971.8961   -5971.8961    -9695.945 -3.2183635e-11 -5.1185881e-12 -1.5107482e-11    28.316819    28.316819    28.599987    22932.677 
      24            0   -4678.7056   -7213.2457   -5971.8961   -5971.8961    -9695.945 -4.3696803e-12 -2.649474e-11 -1.4058658e-11    28.316819    28.316819    28.599987    22932.677 
      25            0   -4678.7056   -7213.2457   -5971.8961   -5971.8961    -9695.945 8.7208903e-13 -1.9369955e-11 6.8807433e-12    28.316819    28.316819    28.599987    22932.677 
      26            0   -4678.7056   -7213.2457   -5971.8961   -5971.8961    -9695.945 -5.9078029e-12 -3.8726585e-12 -1.56994e-11    28.316819    28.316819    28.599987    22932.677 
      27            0   -4678.7056   -7213.2457   -5971.8961   -5971.8961    -9695.945 -4.9709335e-13 1.405936e-11 8.159354e-12    28.316819    28.316819    28.599987    22932.677 
      28            0   -4678.7056   -7213.2457   -5971.8961   -5971.8961    -9695.945 4.107463e-12 -2.987106e-11 -1.6451296e-11    28.316819    28.316819    28.599987    22932.677 
      29            0   -4678.7056   -7213.2457   -5971.8961   -5971.8961    -9695.945 1.6245946e-11 8.464499e-12 -1.0860071e-11    28.316819    28.316819    28.599987    22932.677 
      30            0   -4678.7056   -7213.2457   -5971.8961   -5971.8961    -9695.945 7.8348125e-12 2.1014821e-11 -5.3502888e-12    28.316819    28.316819    28.599987    22932.677 
      31            0   -4678.7056   -7213.2457   -5971.8961   -5971.8961    -9695.945 9.1300028e-12 5.2975703e-12 6.7290068e-12    28.316819    28.316819    28.599987    22932.677 
      32            0   -4678.7056   -7213.2457   -5971.8961   -5971.8961    -9695.945 1.5710779e-11 1.5625992e-11 1.9702966e-11    28.316819    28.316819    28.599987    22932.677 
      33            0   -4678.7056   -7213.2457   -5971.8961   -5971.8961    -9695.945 7.364365e-12 2.2813623e-11 1.4772256e-11    28.316819    28.316819    28.599987    22932.677 
      34            0   -4678.7056   -7213.2457   -5971.8961   -5971.8961    -9695.945 -3.7798812e-12 -5.973884e-12 -1.5268672e-11    28.316819    28.316819    28.599987    22932.677 
      35            0   -4678.7056   -7213.2457   -5971.8961   -5971.8961    -9695.945 -6.7176681e-12 -1.9964637e-11 3.8361956e-11    28.316819    28.316819    28.599987    22932.677 
      36            0   -4678.7056   -7213.2457   -5971.8961   -5971.8961    -9695.945 6.9420224e-12 1.7181352e-11 -9.1041928e-13    28.316819    28.316819    28.599987    22932.677 
      37            0   -4678.7056   -7213.2457   -5971.8961   -5971.8961    -9695.945 3.8833164e-12 5.1768155e-12 -1.2127531e-11    28.316819    28.316819    28.599987    22932.677 
      38            0   -4678.7056   -7213.2457   -5971.8961   -5971.8961    -9695.945 -3.9924556e-12 -2.9000274e-13 2.0588662e-12    28.316819    28.316819    28.599987    22932.677 
      39            0   -4678.7056   -7213.2457   -5971.8961   -5971.8961    -9695.945 3.6568878e-12 -8.8715327e-12 -9.1483079e-12    28.316819    28.316819    28.599987    22932.677 
      40            0   -4678.7056   -7213.2457   -5971.8961   -5971.8961    -9695.945 1.5068697e-11 -6.9522118e-12 2.2505002e-11    28.316819    28.316819    28.599987    22932.677 
      41            0   -4678.7056   -7213.2457   -5971.8961   -5971.8961    -9695.945 -1.5423225e-11 1.4303441e-11 1.3393053e-11    28.316819    28.316819    28.599987    22932.677 
      42            0   -4678.7056   -7213.2457   -5971.8961   -5971.8961    -9695.945 1.2441645e-11 1.5528917e-11 1.2998441e-11    28.316819    28.316819    28.599987    22932.677 
      43            0   -4678.7056   -7213.2457   -5971.8961   -5971.8961    -9695.945 -7.0582756e-12 6.132872e-12 3.8666156e-12    28.316819    28.316819    28.599987    22932.677 
      44            0   -4678.7056   -7213.2457   -5971.8961   -5971.8961    -9695.945 2.0248788e-12 6.1201528e-12 -1.5166868e-11    28.316819    28.316819    28.599987    22932.677 
      45            0   -4678.7056   -7213.2457   -5971.8961   -5971.8961    -9695.945 -2.4760583e-12 2.9504984e-11 8.5537236e-12    28.316819    28.316819    28.599987    22932.677 
      46            0   -4678.7056   -7213.2457   -5971.8961   -5971.8961    -9695.945 -5.0640187e-12 9.2660281e-12 7.3606768e-12    28.316819    28.316819    28.599987    22932.677 
      47            0   -4678.7056   -7213.2457   -5971.8961   -5971.8961    -9695.945 -2.4681206e-12 1.4607649e-11 4.0930085e-12    28.316819    28.316819    28.599987    22932.677 
      48            0   -4678.7056   -7213.2457   -5971.8961   -5971.8961    -9695.945 -2.3701917e-11 -1.2125622e-11 1.4015754e-11    28.316819    28.316819    28.599987    22932.677 
      49            0   -4678.7056   -7213.2457   -5971.8961   -5971.8961    -9695.945 -1.1739201e-13 -1.9799399e-11 -2.539042e-11    28.316819    28.316819    28.599987    22932.677 
      50            0   -4678.7056   -7213.2457   -5971.8961   -5971.8961    -9695.945 9.2849527e-12 4.3721429e-12 1.7029882e-11    28.316819    28.316819    28.599987    22932.677 
Loop time of 0.24863 on 1 procs for 49 steps with 1372 atoms

99.7% CPU use with 1 MPI tasks x 1 OpenMP threads

Minimization stats:
  Stopping criterion = force tolerance
  Energy initial, next-to-last, final = 
        -4678.70560281     -4678.70560307     -4678.70560306
  Force two-norm initial, final = 0.0015331 7.08827e-11
  Force max component initial, final = 6.61361e-05 3.92268e-12
  Final line search alpha, max atom move = 1 3.92268e-12
  Iterations, force evaluations = 49 98

MPI task timing breakdown:
Section |  min time  |  avg time  |  max time  |%varavg| %total
---------------------------------------------------------------
Pair    | 0.24398    | 0.24398    | 0.24398    |   0.0 | 98.13
Bond    | 5.544e-06  | 5.544e-06  | 5.544e-06  |   0.0 |  0.00
Neigh   | 0          | 0          | 0          |   0.0 |  0.00
Comm    | 0.0011441  | 0.0011441  | 0.0011441  |   0.0 |  0.46
Output  | 0.0010789  | 0.0010789  | 0.0010789  |   0.0 |  0.43
Modify  | 0          | 0          | 0          |   0.0 |  0.00
Other   |            | 0.00242    |            |       |  0.97

Nlocal:    1372 ave 1372 max 1372 min
Histogram: 1 0 0 0 0 0 0 0 0 0
Nghost:    3258 ave 3258 max 3258 min
Histogram: 1 0 0 0 0 0 0 0 0 0
Neighs:    58996 ave 58996 max 58996 min
Histogram: 1 0 0 0 0 0 0 0 0 0

Total # of neighbors = 58996
Ave neighs/atom = 43
Ave special neighs/atom = 0
Neighbor list builds = 0
Dangerous builds = 0
OMP_NUM_THREADS environment is not set. Defaulting to 1 thread. (../comm.cpp:88)
  using 1 OpenMP thread(s) per MPI task
Reading restart file ...
  restart file = 30 Apr 2019, LAMMPS = 30 Apr 2019
  restoring atom style full from restart
  orthogonal box = (0 0 0) to (28.3168 28.3168 28.3168)
  1 by 1 by 1 MPI processor grid
  pair style eam/fs stores no restart info
  1372 atoms
Finding 1-2 1-3 1-4 neighbors ...
  special bond factors lj:   0          0          0         
  special bond factors coul: 0          0          0         
  0 = max # of 1-2 neighbors
  0 = max # of 1-3 neighbors
  0 = max # of 1-4 neighbors
  1 = max # of special neighbors
  special bonds CPU = 0.000120173 secs
  read_restart CPU = 0.000514334 secs
Changing box ...
  triclinic box = (0 0 0) to (28.3168 28.3168 28.3168) with tilt (0 0 0)
Changing box ...
  triclinic box = (0 0 0) to (28.3168 28.3168 28.3168) with tilt (0 0 -0.283168)
Neighbor list info ...
  update every 1 steps, delay 0 steps, check yes
  max neighbors/atom: 2000, page size: 100000
  master list distance cutoff = 7.5
  ghost atom cutoff = 7.5
  1 neighbor lists, perpetual/occasional/extra = 1 0 0
  (1) pair eam/fs, perpetual
      attributes: half, newton on
      pair build: half/nsq/newton
      stencil: none
      bin: none
Setting up cg style minimization ...
  Unit style    : metal
  Current step  : 1
Per MPI rank memory allocation (min/avg/max) = 7.175 | 7.175 | 7.175 Mbytes
Step Temp PotEng Press Pxx Pyy Pzz Pxy Pxz Pyz Lx Ly Lz Volume 
       1            0   -4679.1902    109.03661    18.033925     133.4728    175.60312 4.5116847e-05 4.5685376e-05     3269.868    28.316819    28.316819    28.316819     22705.62 
       2            0   -4679.1902    109.03451    18.030878    133.47114    175.60151 -7.258931e-06 4.0952673e-06    3269.8688    28.316819    28.316819    28.316819     22705.62 
       3            0   -4679.1902    109.03424    18.030491    133.47092    175.60132 -1.1473834e-06 1.5828544e-06    3269.8689    28.316819    28.316819    28.316819     22705.62 
       4            0   -4679.1902     109.0342    18.030433    133.47089    175.60129 -5.8426692e-07 7.1118139e-07    3269.8689    28.316819    28.316819    28.316819     22705.62 
       5            0   -4679.1902    109.03419     18.03042    133.47088    175.60128 -3.3198485e-07 4.2619393e-07    3269.8689    28.316819    28.316819    28.316819     22705.62 
       6            0   -4679.1902    109.03419    18.030417    133.47088    175.60128 -1.0481898e-07 1.0482339e-07    3269.8689    28.316819    28.316819    28.316819     22705.62 
[...]
      23            0   -4679.1902    109.03419    133.47088    175.60128    18.030415    3269.8689 -4.4172693e-12 3.0569504e-11    28.316819    28.316819    28.316819     22705.62 
      24            0   -4679.1902    109.03419    133.47088    175.60128    18.030415    3269.8689 1.159174e-12 3.6823536e-11    28.316819    28.316819    28.316819     22705.62 
      25            0   -4679.1902    109.03419    133.47088    175.60128    18.030415    3269.8689 -8.6700596e-12 6.8313053e-12    28.316819    28.316819    28.316819     22705.62 
      26            0   -4679.1902    109.03419    133.47088    175.60128    18.030415    3269.8689 4.8711498e-12 6.4755898e-12    28.316819    28.316819    28.316819     22705.62 
      27            0   -4679.1902    109.03419    133.47088    175.60128    18.030415    3269.8689 9.3505294e-12 1.3819782e-11    28.316819    28.316819    28.316819     22705.62 
      28            0   -4679.1902    109.03419    133.47088    175.60128    18.030415    3269.8689 -3.4474269e-12 1.3476062e-11    28.316819    28.316819    28.316819     22705.62 
      29            0   -4679.1902    109.03419    133.47088    175.60128    18.030415    3269.8689 -7.4855435e-12 1.1690874e-11    28.316819    28.316819    28.316819     22705.62 
      30            0   -4679.1902    109.03419    133.47088    175.60128    18.030415    3269.8689 -2.3234248e-11 -5.8329516e-12    28.316819    28.316819    28.316819     22705.62 
      31            0   -4679.1902    109.03419    133.47088    175.60128    18.030415    3269.8689 -1.1222471e-12 -1.3375933e-11    28.316819    28.316819    28.316819     22705.62 
      32            0   -4679.1902    109.03419    133.47088    175.60128    18.030415    3269.8689 3.4463488e-11 -1.0104966e-11    28.316819    28.316819    28.316819     22705.62 
      33            0   -4679.1902    109.03419    133.47088    175.60128    18.030415    3269.8689 -8.5083023e-12 1.2847378e-11    28.316819    28.316819    28.316819     22705.62 
      34            0   -4679.1902    109.03419    133.47088    175.60128    18.030415    3269.8689 -2.7751681e-12 1.9601567e-11    28.316819    28.316819    28.316819     22705.62 
      35            0   -4679.1902    109.03419    133.47088    175.60128    18.030415    3269.8689 8.5706229e-12 4.4402016e-12    28.316819    28.316819    28.316819     22705.62 
      36            0   -4679.1902    109.03419    133.47088    175.60128    18.030415    3269.8689 1.2145135e-12 -1.1636281e-11    28.316819    28.316819    28.316819     22705.62 
      37            0   -4679.1902    109.03419    133.47088    175.60128    18.030415    3269.8689 1.7395097e-11 -6.6577318e-12    28.316819    28.316819    28.316819     22705.62 
      38            0   -4679.1902    109.03419    133.47088    175.60128    18.030415    3269.8689 9.5314129e-12 1.4877136e-11    28.316819    28.316819    28.316819     22705.62 
      39            0   -4679.1902    109.03419    133.47088    175.60128    18.030415    3269.8689 -2.5172578e-12 2.6792505e-12    28.316819    28.316819    28.316819     22705.62 
      40            0   -4679.1902    109.03419    133.47088    175.60128    18.030415    3269.8689 -4.0175197e-12 -2.7245657e-11    28.316819    28.316819    28.316819     22705.62 
      41            0   -4679.1902    109.03419    133.47088    175.60128    18.030415    3269.8689 -3.02373e-11 2.7764419e-12    28.316819    28.316819    28.316819     22705.62 
      42            0   -4679.1902    109.03419    133.47088    175.60128    18.030415    3269.8689 9.0429371e-12 9.9154791e-12    28.316819    28.316819    28.316819     22705.62 
      43            0   -4679.1902    109.03419    133.47088    175.60128    18.030415    3269.8689 2.7232138e-12 1.208576e-11    28.316819    28.316819    28.316819     22705.62 
      44            0   -4679.1902    109.03419    133.47088    175.60128    18.030415    3269.8689 1.3784182e-11 -1.2539157e-11    28.316819    28.316819    28.316819     22705.62 
      45            0   -4679.1902    109.03419    133.47088    175.60128    18.030415    3269.8689 -3.477777e-11 1.8342975e-11    28.316819    28.316819    28.316819     22705.62 
      46            0   -4679.1902    109.03419    133.47088    175.60128    18.030415    3269.8689 8.1220346e-12 -1.3719408e-12    28.316819    28.316819    28.316819     22705.62 
      47            0   -4679.1902    109.03419    133.47088    175.60128    18.030415    3269.8689 8.0542592e-12 1.0017077e-11    28.316819    28.316819    28.316819     22705.62 
      48            0   -4679.1902    109.03419    133.47088    175.60128    18.030415    3269.8689 8.3752322e-12 1.0345618e-11    28.316819    28.316819    28.316819     22705.62 
      49            0   -4679.1902    109.03419    133.47088    175.60128    18.030415    3269.8689 1.7922998e-11 -1.322733e-11    28.316819    28.316819    28.316819     22705.62 
      50            0   -4679.1902    109.03419    133.47088    175.60128    18.030415    3269.8689 2.2083304e-11 -9.2833679e-12    28.316819    28.316819    28.316819     22705.62 
Loop time of 0.247591 on 1 procs for 49 steps with 1372 atoms

99.7% CPU use with 1 MPI tasks x 1 OpenMP threads

Minimization stats:
  Stopping criterion = force tolerance
  Energy initial, next-to-last, final = 
        -4679.19021988     -4679.19022014     -4679.19022014
  Force two-norm initial, final = 0.00158739 8.4694e-11
  Force max component initial, final = 6.9875e-05 5.27086e-12
  Final line search alpha, max atom move = 1 5.27086e-12
  Iterations, force evaluations = 49 98

MPI task timing breakdown:
Section |  min time  |  avg time  |  max time  |%varavg| %total
---------------------------------------------------------------
Pair    | 0.24309    | 0.24309    | 0.24309    |   0.0 | 98.18
Bond    | 7.007e-06  | 7.007e-06  | 7.007e-06  |   0.0 |  0.00
Neigh   | 0          | 0          | 0          |   0.0 |  0.00
Comm    | 0.0011064  | 0.0011064  | 0.0011064  |   0.0 |  0.45
Output  | 0.0010953  | 0.0010953  | 0.0010953  |   0.0 |  0.44
Modify  | 0          | 0          | 0          |   0.0 |  0.00
Other   |            | 0.002288   |            |       |  0.92

Nlocal:    1372 ave 1372 max 1372 min
Histogram: 1 0 0 0 0 0 0 0 0 0
Nghost:    3258 ave 3258 max 3258 min
Histogram: 1 0 0 0 0 0 0 0 0 0
Neighs:    58996 ave 58996 max 58996 min
Histogram: 1 0 0 0 0 0 0 0 0 0

Total # of neighbors = 58996
Ave neighs/atom = 43
Ave special neighs/atom = 0
Neighbor list builds = 0
Dangerous builds = 0
OMP_NUM_THREADS environment is not set. Defaulting to 1 thread. (../comm.cpp:88)
  using 1 OpenMP thread(s) per MPI task
Reading restart file ...
  restart file = 30 Apr 2019, LAMMPS = 30 Apr 2019
  restoring atom style full from restart
  orthogonal box = (0 0 0) to (28.3168 28.3168 28.3168)
  1 by 1 by 1 MPI processor grid
  pair style eam/fs stores no restart info
  1372 atoms
Finding 1-2 1-3 1-4 neighbors ...
  special bond factors lj:   0          0          0         
  special bond factors coul: 0          0          0         
  0 = max # of 1-2 neighbors
  0 = max # of 1-3 neighbors
  0 = max # of 1-4 neighbors
  1 = max # of special neighbors
  special bonds CPU = 0.000127085 secs
  read_restart CPU = 0.000901562 secs
Changing box ...
  triclinic box = (0 0 0) to (28.3168 28.3168 28.3168) with tilt (0 0 0)
Changing box ...
  triclinic box = (0 0 0) to (28.3168 28.3168 28.3168) with tilt (0.283168 0 0)
Neighbor list info ...
  update every 1 steps, delay 0 steps, check yes
  max neighbors/atom: 2000, page size: 100000
  master list distance cutoff = 7.5
  ghost atom cutoff = 7.5
  1 neighbor lists, perpetual/occasional/extra = 1 0 0
  (1) pair eam/fs, perpetual
      attributes: half, newton on
      pair build: half/nsq/newton
      stencil: none
      bin: none
Setting up cg style minimization ...
  Unit style    : metal
  Current step  : 1
Per MPI rank memory allocation (min/avg/max) = 7.175 | 7.175 | 7.175 Mbytes
Step Temp PotEng Press Pxx Pyy Pzz Pxy Pxz Pyz Lx Ly Lz Volume 
       1            0   -4679.1902    109.03663    133.47279    175.60318     18.03391    -3269.868 5.0106571e-05 -6.9150456e-07    28.316819    28.316819    28.316819     22705.62 
       2            0   -4679.1902     109.0345    133.47111    175.60152    18.030863   -3269.8688 3.2996313e-06 -1.0943798e-05    28.316819    28.316819    28.316819     22705.62 
       3            0   -4679.1902    109.03424    133.47092    175.60132    18.030487   -3269.8689 2.0253257e-06 -8.1590417e-07    28.316819    28.316819    28.316819     22705.62 
       4            0   -4679.1902     109.0342    133.47089    175.60129    18.030433   -3269.8689 1.0691077e-06 -1.6148641e-07    28.316819    28.316819    28.316819     22705.62 
       5            0   -4679.1902    109.03419    133.47088    175.60128    18.030421   -3269.8689 4.9323507e-07 -2.1475954e-07    28.316819    28.316819    28.316819     22705.62 
       6            0   -4679.1902    109.03419    133.47088    175.60128    18.030417   -3269.8689 9.6643537e-08 -2.1307971e-07    28.316819    28.316819    28.316819     22705.62 
       7            0   -4679.1902    109.03419    133.47088    175.60128    18.030416   -3269.8689 -2.6092479e-08 -1.11164e-07    28.316819    28.316819    28.316819     22705.62 
       8            0   -4679.1902    109.03419    133.47088    175.60128    18.030415   -3269.8689 -5.0900391e-08 -6.7711944e-08    28.316819    28.316819    28.316819     22705.62 
       9            0   -4679.1902    109.03419    133.47088    175.60128    18.030415   -3269.8689 -4.6251509e-08 -4.1199958e-08    28.316819    28.316819    28.316819     22705.62 
      10            0   -4679.1902    109.03419    133.47088    175.60128    18.030415   -3269.8689 -2.3657097e-08 -2.6019972e-08    28.316819    28.316819    28.316819     22705.62 
      11            0   -4679.1902    109.03419    133.47088    175.60128    18.030415   -3269.8689 -6.9988208e-09 -1.3821136e-08    28.316819    28.316819    28.316819     22705.62 
      12            0   -4679.1902    109.03419    133.47088    175.60128    18.030415   -3269.8689 2.4760049e-09 -6.0671275e-09    28.316819    28.316819    28.316819     22705.62 
      13            0   -4679.1902    109.03419    133.47088    175.60128    18.030415   -3269.8689 4.5473683e-09 -1.0189718e-09    28.316819    28.316819    28.316819     22705.62 
      14            0   -4679.1902    109.03419    133.47088    175.60128    18.030415   -3269.8689 3.3215079e-09 1.1515492e-09    28.316819    28.316819    28.316819     22705.62 
      15            0   -4679.1902    109.03419    133.47088    175.60128    18.030415   -3269.8689 1.8205757e-09 1.2815716e-09    28.316819    28.316819    28.316819     22705.62 
      16            0   -4679.1902    109.03419    133.47088    175.60128    18.030415   -3269.8689 1.125123e-09 8.0908958e-10    28.316819    28.316819    28.316819     22705.62 
      17            0   -4679.1902    109.03419    133.47088    175.60128    18.030415   -3269.8689 4.7271119e-10 2.0813105e-10    28.316819    28.316819    28.316819     22705.62 
      18            0   -4679.1902    109.03419    133.47088    175.60128    18.030415   -3269.8689 4.2516064e-11 3.6241123e-11    28.316819    28.316819    28.316819     22705.62 
      19            0   -4679.1902    109.03419    133.47088    175.60128    18.030415   -3269.8689 -9.7281422e-11 -9.0359828e-11    28.316819    28.316819    28.316819     22705.62 
      20            0   -4679.1902    109.03419    133.47088    175.60128    18.030415   -3269.8689 -1.0366978e-10 -1.0148053e-10    28.316819    28.316819    28.316819     22705.62 
      21            0   -4679.1902    109.03419    133.47088    175.60128    18.030415   -3269.8689 -9.9247966e-11 -7.6587785e-11    28.316819    28.316819    28.316819     22705.62 
      22            0   -4679.1902    109.03419    133.47088    175.60128    18.030415   -3269.8689 -8.0610259e-11 -3.7120007e-11    28.316819    28.316819    28.316819     22705.62 
      23            0   -4679.1902    109.03419    133.47088    175.60128    18.030415   -3269.8689 -4.2927222e-11 1.6123487e-12    28.316819    28.316819    28.316819     22705.62 
      24            0   -4679.1902    109.03419    133.47088    175.60128    18.030415   -3269.8689 -2.7209426e-11 -1.2307807e-11    28.316819    28.316819    28.316819     22705.62 
      25            0   -4679.1902    109.03419    133.47088    175.60128    18.030415   -3269.8689 -4.0799914e-12 1.4593396e-12    28.316819    28.316819    28.316819     22705.62 
      26            0   -4679.1902    109.03419    133.47088    175.60128    18.030415   -3269.8689 3.1506868e-12 -1.5322453e-11    28.316819    28.316819    28.316819     22705.62 
      27            0   -4679.1902    109.03419    133.47088    175.60128    18.030415   -3269.8689 1.1524945e-11 5.7372291e-12    28.316819    28.316819    28.316819     22705.62 
      28            0   -4679.1902    109.03419    133.47088    175.60128    18.030415   -3269.8689 8.0139433e-12 1.2124686e-11    28.316819    28.316819    28.316819     22705.62 
      29            0   -4679.1902    109.03419    133.47088    175.60128    18.030415   -3269.8689 -6.3694378e-12 -1.4196796e-11    28.316819    28.316819    28.316819     22705.62 
      30            0   -4679.1902    109.03419    133.47088    175.60128    18.030415   -3269.8689 -9.0661466e-12 2.4049603e-11    28.316819    28.316819    28.316819     22705.62 
      31            0   -4679.1902    109.03419    133.47088    175.60128    18.030415   -3269.8689 2.2485507e-11 -1.7978936e-11    28.316819    28.316819    28.316819     22705.62 
      32            0   -4679.1902    109.03419    133.47088    175.60128    18.030415   -3269.8689 2.4747678e-11 2.266738e-12    28.316819    28.316819    28.316819     22705.62 
      33            0   -4679.1902    109.03419    133.47088    175.60128    18.030415   -3269.8689 -7.1096786e-12 2.1391406e-11    28.316819    28.316819    28.316819     22705.62 
      34            0   -4679.1902    109.03419    133.47088    175.60128    18.030415   -3269.8689 -1.6191543e-11 -8.8725691e-12    28.316819    28.316819    28.316819     22705.62 
      35            0   -4679.1902    109.03419    133.47088    175.60128    18.030415   -3269.8689 -1.9746972e-11 -1.2272554e-11    28.316819    28.316819    28.316819     22705.62 
      36            0   -4679.1902    109.03419    133.47088    175.60128    18.030415   -3269.8689 3.0172763e-12 -2.155078e-11    28.316819    28.316819    28.316819     22705.62 
      37            0   -4679.1902    109.03419    133.47088    175.60128    18.030415   -3269.8689 4.4820706e-12 1.1942299e-11    28.316819    28.316819    28.316819     22705.62 
      38            0   -4679.1902    109.03419    133.47088    175.60128    18.030415   -3269.8689 -8.7877198e-12 9.365136e-12    28.316819    28.316819    28.316819     22705.62 
      39            0   -4679.1902    109.03419    133.47088    175.60128    18.030415   -3269.8689 -1.2074516e-11 5.6968347e-13    28.316819    28.316819    28.316819     22705.62 
      40            0   -4679.1902    109.03419    133.47088    175.60128    18.030415   -3269.8689 -3.4149419e-11 1.982239e-11    28.316819    28.316819    28.316819     22705.62 
      41            0   -4679.1902    109.03419    133.47088    175.60128    18.030415   -3269.8689 5.4052013e-12 -1.8347872e-11    28.316819    28.316819    28.316819     22705.62 
      42            0   -4679.1902    109.03419    133.47088    175.60128    18.030415   -3269.8689 2.6004527e-11 1.8914373e-12    28.316819    28.316819    28.316819     22705.62 
      43            0   -4679.1902    109.03419    133.47088    175.60128    18.030415   -3269.8689 2.7016026e-11 2.3435608e-11    28.316819    28.316819    28.316819     22705.62 
      44            0   -4679.1902    109.03419    133.47088    175.60128    18.030415   -3269.8689 -1.981353e-13 1.7609511e-12    28.316819    28.316819    28.316819     22705.62 
      45            0   -4679.1902    109.03419    133.47088    175.60128    18.030415   -3269.8689 -1.6882201e-12 -1.9612828e-11    28.316819    28.316819    28.316819     22705.62 
      46            0   -4679.1902    109.03419    133.47088    175.60128    18.030415   -3269.8689 -7.1941626e-13 -5.079902e-13    28.316819    28.316819    28.316819     22705.62 
      47            0   -4679.1902    109.03419    133.47088    175.60128    18.030415   -3269.8689 -1.5601886e-11 1.5344731e-11    28.316819    28.316819    28.316819     22705.62 
      48            0   -4679.1902    109.03419    133.47088    175.60128    18.030415   -3269.8689 -5.4499067e-12 2.0898105e-11    28.316819    28.316819    28.316819     22705.62 
      49            0   -4679.1902    109.03419    133.47088    175.60128    18.030415   -3269.8689 2.6166181e-12 4.7824523e-12    28.316819    28.316819    28.316819     22705.62 
      50            0   -4679.1902    109.03419    133.47088    175.60128    18.030415   -3269.8689 1.1706569e-11 6.8266539e-12    28.316819    28.316819    28.316819     22705.62 
Loop time of 0.250482 on 1 procs for 49 steps with 1372 atoms

99.7% CPU use with 1 MPI tasks x 1 OpenMP threads

Minimization stats:
  Stopping criterion = force tolerance
  Energy initial, next-to-last, final = 
        -4679.19021988     -4679.19022014     -4679.19022014
  Force two-norm initial, final = 0.00158594 8.61278e-11
  Force max component initial, final = 6.79354e-05 5.1605e-12
  Final line search alpha, max atom move = 1 5.1605e-12
  Iterations, force evaluations = 49 98

MPI task timing breakdown:
Section |  min time  |  avg time  |  max time  |%varavg| %total
---------------------------------------------------------------
Pair    | 0.24599    | 0.24599    | 0.24599    |   0.0 | 98.21
Bond    | 5.936e-06  | 5.936e-06  | 5.936e-06  |   0.0 |  0.00
Neigh   | 0          | 0          | 0          |   0.0 |  0.00
Comm    | 0.0011114  | 0.0011114  | 0.0011114  |   0.0 |  0.44
Output  | 0.0010436  | 0.0010436  | 0.0010436  |   0.0 |  0.42
Modify  | 0          | 0          | 0          |   0.0 |  0.00
Other   |            | 0.002332   |            |       |  0.93

Nlocal:    1372 ave 1372 max 1372 min
Histogram: 1 0 0 0 0 0 0 0 0 0
Nghost:    3258 ave 3258 max 3258 min
Histogram: 1 0 0 0 0 0 0 0 0 0
Neighs:    58996 ave 58996 max 58996 min
Histogram: 1 0 0 0 0 0 0 0 0 0

Total # of neighbors = 58996
Ave neighs/atom = 43
Ave special neighs/atom = 0
Neighbor list builds = 0
Dangerous builds = 0
=========================================
Components of the Elastic Constant Tensor
=========================================
Elastic Constant C11all=111.095029234369
Elastic Constant C22all = 111.095029234369 GPa
Elastic Constant C33all = 111.095029234368 GPa
Elastic Constant C12all=61.6813216715012
Elastic Constant C13all = 61.6813216715013 GPa
Elastic Constant C23all = 61.6813216715013 GPa
Elastic Constant C44all=32.6986888997052
Elastic Constant C55all = 32.6986888997051 GPa
Elastic Constant C66all = 32.6986888997052 GPa
Elastic Constant C14all = 3.91510960812532e-14 GPa
Elastic Constant C15all = 1.8123606704116e-15 GPa
Elastic Constant C16all = -1.71666465697204e-14 GPa
Elastic Constant C24all = 4.57623149897858e-14 GPa
Elastic Constant C25all = 2.45751722730622e-14 GPa
Elastic Constant C26all = 7.70129406513293e-14 GPa
Elastic Constant C34all = -1.36436157870129e-13 GPa
Elastic Constant C35all = 4.14460300514008e-14 GPa
Elastic Constant C36all = 6.46485438630813e-14 GPa
Elastic Constant C45all = 4.94074416803068e-14 GPa
Elastic Constant C46all = -2.31528010528972e-14 GPa
Elastic Constant C56all = 9.25624227740575e-15 GPa
=========================================
Average properties for a cubic crystal
=========================================
Bulk=78.1525575257905
Shear 1=32.6986888997052
Shear 2=24.7068537814338
Poisson=0.357000951508148
Total wall time: 0:00:03
