LAMMPS (30 Apr 2019)
OMP_NUM_THREADS environment is not set. Defaulting to 1 thread. (../comm.cpp:88)
  using 1 OpenMP thread(s) per MPI task
Lattice spacing in x,y,z = 3.63909 3.63909 3.63909
Created orthogonal box = (0 0 0) to (3.63909 3.63909 3.63909)
  1 by 1 by 1 MPI processor grid
Created 4 atoms
  create_atoms CPU = 0.00121234 secs
Replicating atoms ...
  orthogonal box = (0 0 0) to (25.4736 25.4736 25.4736)
  1 by 1 by 1 MPI processor grid
  1372 atoms
Finding 1-2 1-3 1-4 neighbors ...
  special bond factors lj:   0          0          0         
  special bond factors coul: 0          0          0         
  0 = max # of 1-2 neighbors
  0 = max # of 1-3 neighbors
  0 = max # of 1-4 neighbors
  1 = max # of special neighbors
  special bonds CPU = 0.00015372 secs
  replicate CPU = 0.000595152 secs
Neighbor list info ...
  update every 1 steps, delay 0 steps, check yes
  max neighbors/atom: 2000, page size: 100000
  master list distance cutoff = 7
  ghost atom cutoff = 7
  1 neighbor lists, perpetual/occasional/extra = 1 0 0
  (1) pair eam/fs, perpetual
      attributes: half, newton on
      pair build: half/nsq/newton
      stencil: none
      bin: none
Setting up cg style minimization ...
  Unit style    : metal
  Current step  : 0
WARNING: Energy due to 3 extra global DOFs will be included in minimizer energies
Per MPI rank memory allocation (min/avg/max) = 7.194 | 7.194 | 7.194 Mbytes
Step Temp PotEng Press Pxx Pyy Pzz Pxy Pxz Pyz Lx Ly Lz Volume 
       0            0   -4504.4354 7.8417482e-09 7.8429749e-09 7.8518447e-09 7.8304249e-09 -2.2303448e-10 -8.6623642e-12 1.5878227e-11    25.473612    25.473612    25.473612    16529.952 
       1            0   -4504.4354 -1.4972096e-10 -1.7934283e-10 -1.0563985e-10 -1.6418021e-10 5.7628707e-11 1.8605361e-11 -2.2980091e-11    25.473612    25.473612    25.473612    16529.952 
Loop time of 0.00832955 on 1 procs for 1 steps with 1372 atoms

98.5% CPU use with 1 MPI tasks x 1 OpenMP threads

Minimization stats:
  Stopping criterion = force tolerance
  Energy initial, next-to-last, final = 
        -4504.43543897     -4504.43543897     -4504.43543897
  Force two-norm initial, final = 1.40132e-10 2.78089e-12
  Force max component initial, final = 8.10089e-11 1.85031e-12
  Final line search alpha, max atom move = 1 1.85031e-12
  Iterations, force evaluations = 1 2

MPI task timing breakdown:
Section |  min time  |  avg time  |  max time  |%varavg| %total
---------------------------------------------------------------
Pair    | 0.0081041  | 0.0081041  | 0.0081041  |   0.0 | 97.29
Bond    | 3.37e-07   | 3.37e-07   | 3.37e-07   |   0.0 |  0.00
Neigh   | 0          | 0          | 0          |   0.0 |  0.00
Comm    | 3.3265e-05 | 3.3265e-05 | 3.3265e-05 |   0.0 |  0.40
Output  | 0          | 0          | 0          |   0.0 |  0.00
Modify  | 0          | 0          | 0          |   0.0 |  0.00
Other   |            | 0.0001919  |            |       |  2.30

Nlocal:    1372 ave 1372 max 1372 min
Histogram: 1 0 0 0 0 0 0 0 0 0
Nghost:    3258 ave 3258 max 3258 min
Histogram: 1 0 0 0 0 0 0 0 0 0
Neighs:    91924 ave 91924 max 91924 min
Histogram: 1 0 0 0 0 0 0 0 0 0

Total # of neighbors = 91924
Ave neighs/atom = 67
Ave special neighs/atom = 0
Neighbor list builds = 0
Dangerous builds = 0
Displacing atoms ...
System init for write_restart ...
OMP_NUM_THREADS environment is not set. Defaulting to 1 thread. (../comm.cpp:88)
  using 1 OpenMP thread(s) per MPI task
Reading restart file ...
  restart file = 30 Apr 2019, LAMMPS = 30 Apr 2019
  restoring atom style full from restart
  orthogonal box = (-2.32233e-14 -2.32496e-14 -2.31862e-14) to (25.4736 25.4736 25.4736)
  1 by 1 by 1 MPI processor grid
  pair style eam/fs stores no restart info
  1372 atoms
Finding 1-2 1-3 1-4 neighbors ...
  special bond factors lj:   0          0          0         
  special bond factors coul: 0          0          0         
  0 = max # of 1-2 neighbors
  0 = max # of 1-3 neighbors
  0 = max # of 1-4 neighbors
  1 = max # of special neighbors
  special bonds CPU = 0.000125346 secs
  read_restart CPU = 0.000530399 secs
Changing box ...
  triclinic box = (-2.32233e-14 -2.32496e-14 -2.31862e-14) to (25.4736 25.4736 25.4736) with tilt (0 0 0)
Changing box ...
  triclinic box = (-2.32233e-14 -2.32496e-14 -2.31862e-14) to (25.2189 25.4736 25.4736) with tilt (0 0 0)
  triclinic box = (-2.32233e-14 -2.32496e-14 -2.31862e-14) to (25.2189 25.4736 25.4736) with tilt (0 0 0)
  triclinic box = (-2.32233e-14 -2.32496e-14 -2.31862e-14) to (25.2189 25.4736 25.4736) with tilt (0 0 0)
Neighbor list info ...
  update every 1 steps, delay 0 steps, check yes
  max neighbors/atom: 2000, page size: 100000
  master list distance cutoff = 7
  ghost atom cutoff = 7
  1 neighbor lists, perpetual/occasional/extra = 1 0 0
  (1) pair eam/fs, perpetual
      attributes: half, newton on
      pair build: half/nsq/newton
      stencil: none
      bin: none
Setting up cg style minimization ...
  Unit style    : metal
  Current step  : 1
Per MPI rank memory allocation (min/avg/max) = 7.179 | 7.179 | 7.179 Mbytes
Step Temp PotEng Press Pxx Pyy Pzz Pxy Pxz Pyz Lx Ly Lz Volume 
       1            0   -4503.4949    14502.097     18597.24    12454.525    12454.525  3.09379e-07 1.9017126e-07 3.2467254e-07    25.218876    25.473612    25.473612    16364.653 
       2            0   -4503.4949    14502.097     18597.24    12454.525    12454.525 -1.312718e-07 1.0949378e-07 -8.596994e-08    25.218876    25.473612    25.473612    16364.653 
       3            0   -4503.4949    14502.097     18597.24    12454.525    12454.525 -1.2461112e-07 1.242116e-08 -8.9348506e-08    25.218876    25.473612    25.473612    16364.653 
       4            0   -4503.4949    14502.097     18597.24    12454.525    12454.525 -4.1385178e-08 8.504957e-12 -3.2288958e-08    25.218876    25.473612    25.473612    16364.653 
       5            0   -4503.4949    14502.097     18597.24    12454.525    12454.525 -2.4183556e-08 8.5190366e-11 -1.3141468e-08    25.218876    25.473612    25.473612    16364.653 
       6            0   -4503.4949    14502.097     18597.24    12454.525    12454.525 -1.572554e-08 2.9009195e-09 -7.2250822e-09    25.218876    25.473612    25.473612    16364.653 
       7            0   -4503.4949    14502.097     18597.24    12454.525    12454.525 -1.0941411e-08 2.8286204e-09 -5.0291147e-09    25.218876    25.473612    25.473612    16364.653 
       8            0   -4503.4949    14502.097     18597.24    12454.525    12454.525 -6.0832622e-09 2.1737359e-09 -2.6706516e-09    25.218876    25.473612    25.473612    16364.653 
       9            0   -4503.4949    14502.097     18597.24    12454.525    12454.525 -2.7803164e-09 1.2327638e-09 -8.2385507e-10    25.218876    25.473612    25.473612    16364.653 
      10            0   -4503.4949    14502.097     18597.24    12454.525    12454.525 -1.2095959e-09 6.6699077e-10 -2.6549654e-10    25.218876    25.473612    25.473612    16364.653 
      11            0   -4503.4949    14502.097     18597.24    12454.525    12454.525 -4.4526049e-10 3.8446237e-10 -2.2859169e-10    25.218876    25.473612    25.473612    16364.653 
      12            0   -4503.4949    14502.097     18597.24    12454.525    12454.525 -1.5722902e-10 2.2515735e-10 -2.2370714e-10    25.218876    25.473612    25.473612    16364.653 
      13            0   -4503.4949    14502.097     18597.24    12454.525    12454.525 -2.5703221e-12 1.5072186e-10 -1.5738179e-10    25.218876    25.473612    25.473612    16364.653 
      14            0   -4503.4949    14502.097     18597.24    12454.525    12454.525 4.3660829e-11 1.2219653e-10 -1.0906078e-10    25.218876    25.473612    25.473612    16364.653 
      15            0   -4503.4949    14502.097     18597.24    12454.525    12454.525 2.6691166e-11 9.0783967e-11 -6.3684212e-11    25.218876    25.473612    25.473612    16364.653 
      16            0   -4503.4949    14502.097     18597.24    12454.525    12454.525 1.3638468e-11 6.2056448e-11 -3.3725318e-11    25.218876    25.473612    25.473612    16364.653 
      17            0   -4503.4949    14502.097     18597.24    12454.525    12454.525 -7.6805654e-12 5.0903468e-11 -4.1365826e-11    25.218876    25.473612    25.473612    16364.653 
      18            0   -4503.4949    14502.097     18597.24    12454.525    12454.525 -2.3575156e-12 2.672938e-11 -2.9397766e-11    25.218876    25.473612    25.473612    16364.653 
      19            0   -4503.4949    14502.097     18597.24    12454.525    12454.525 2.6001795e-11 2.9584434e-11 -1.4957806e-11    25.218876    25.473612    25.473612    16364.653 
      20            0   -4503.4949    14502.097     18597.24    12454.525    12454.525 -9.4424605e-12 5.488047e-12 1.8487272e-12    25.218876    25.473612    25.473612    16364.653 
      21            0   -4503.4949    14502.097     18597.24    12454.525    12454.525 2.1247532e-11 1.3654772e-11 -1.5606378e-11    25.218876    25.473612    25.473612    16364.653 
      22            0   -4503.4949    14502.097     18597.24    12454.525    12454.525 -1.7783694e-11 -7.4793927e-12 -3.5664403e-12    25.218876    25.473612    25.473612    16364.653 
      23            0   -4503.4949    14502.097     18597.24    12454.525    12454.525 1.3554908e-11 -1.5805171e-11 3.7607766e-12    25.218876    25.473612    25.473612    16364.653 
      24            0   -4503.4949    14502.097     18597.24    12454.525    12454.525 2.3102328e-11 6.0136943e-12 -6.2423081e-12    25.218876    25.473612    25.473612    16364.653 
      25            0   -4503.4949    14502.097     18597.24    12454.525    12454.525 -1.7081755e-11 -8.074079e-12 9.5256035e-12    25.218876    25.473612    25.473612    16364.653 
      26            0   -4503.4949    14502.097     18597.24    12454.525    12454.525 -2.876828e-11 -1.3597197e-12 -1.5345004e-12    25.218876    25.473612    25.473612    16364.653 
      27            0   -4503.4949    14502.097     18597.24    12454.525    12454.525 -1.1181428e-11 -3.7873783e-12 -8.0881079e-12    25.218876    25.473612    25.473612    16364.653 
      28            0   -4503.4949    14502.097     18597.24    12454.525    12454.525 -1.2893221e-11 8.1249454e-12 -2.7932769e-13    25.218876    25.473612    25.473612    16364.653 
      29            0   -4503.4949    14502.097     18597.24    12454.525    12454.525 2.4274038e-11 1.1170643e-11 -4.7414019e-12    25.218876    25.473612    25.473612    16364.653 
      30            0   -4503.4949    14502.097     18597.24    12454.525    12454.525 -3.0877323e-11 -9.2328809e-12 1.7838059e-11    25.218876    25.473612    25.473612    16364.653 
      31            0   -4503.4949    14502.097     18597.24    12454.525    12454.525 -3.298229e-11 3.461375e-12 1.222613e-12    25.218876    25.473612    25.473612    16364.653 
      32            0   -4503.4949    14502.097     18597.24    12454.525    12454.525 7.2851834e-12 -8.5954805e-12 5.6842856e-12    25.218876    25.473612    25.473612    16364.653 
      33            0   -4503.4949    14502.097     18597.24    12454.525    12454.525 2.4607599e-11 -5.7823755e-12 -5.6320908e-12    25.218876    25.473612    25.473612    16364.653 
      34            0   -4503.4949    14502.097     18597.24    12454.525    12454.525 -1.984841e-11 -3.147685e-12 -1.3743122e-11    25.218876    25.473612    25.473612    16364.653 
      35            0   -4503.4949    14502.097     18597.24    12454.525    12454.525 -3.1554635e-11 3.4595917e-12 -4.7623993e-12    25.218876    25.473612    25.473612    16364.653 
      36            0   -4503.4949    14502.097     18597.24    12454.525    12454.525 -2.2338059e-11 -8.6609528e-12 -1.4550274e-12    25.218876    25.473612    25.473612    16364.653 
      37            0   -4503.4949    14502.097     18597.24    12454.525    12454.525 1.4191969e-11 -1.3457931e-12 1.1728474e-11    25.218876    25.473612    25.473612    16364.653 
      38            0   -4503.4949    14502.097     18597.24    12454.525    12454.525 7.0353523e-12 -1.4156388e-11 -2.4013473e-11    25.218876    25.473612    25.473612    16364.653 
      39            0   -4503.4949    14502.097     18597.24    12454.525    12454.525 6.8274711e-14 -7.4421983e-12 -1.1237852e-11    25.218876    25.473612    25.473612    16364.653 
      40            0   -4503.4949    14502.097     18597.24    12454.525    12454.525 -3.9606126e-12  1.87606e-11 -1.8152703e-11    25.218876    25.473612    25.473612    16364.653 
      41            0   -4503.4949    14502.097     18597.24    12454.525    12454.525  3.37773e-12 -3.4431175e-12 -7.1465316e-12    25.218876    25.473612    25.473612    16364.653 
      42            0   -4503.4949    14502.097     18597.24    12454.525    12454.525 7.9504373e-12 -1.4469314e-12 -8.3007824e-13    25.218876    25.473612    25.473612    16364.653 
      43            0   -4503.4949    14502.097     18597.24    12454.525    12454.525 -1.3425831e-11 4.6483699e-12 4.5422813e-12    25.218876    25.473612    25.473612    16364.653 
      44            0   -4503.4949    14502.097     18597.24    12454.525    12454.525 -1.2795394e-11 -5.903215e-12 1.5845795e-12    25.218876    25.473612    25.473612    16364.653 
      45            0   -4503.4949    14502.097     18597.24    12454.525    12454.525 -3.7095417e-11 3.7832172e-12 4.4298596e-12    25.218876    25.473612    25.473612    16364.653 
      46            0   -4503.4949    14502.097     18597.24    12454.525    12454.525 3.5283759e-11 6.6330071e-13 1.0835672e-11    25.218876    25.473612    25.473612    16364.653 
      47            0   -4503.4949    14502.097     18597.24    12454.525    12454.525 5.261076e-11 4.6375852e-12 -4.8605606e-12    25.218876    25.473612    25.473612    16364.653 
      48            0   -4503.4949    14502.097     18597.24    12454.525    12454.525 -8.0672855e-12 4.1446316e-12 1.5353071e-11    25.218876    25.473612    25.473612    16364.653 
      49            0   -4503.4949    14502.097     18597.24    12454.525    12454.525 -2.8583157e-11 4.3146391e-12 1.525363e-11    25.218876    25.473612    25.473612    16364.653 
      50            0   -4503.4949    14502.097     18597.24    12454.525    12454.525 1.1346849e-12 -2.0223156e-11 -5.2703621e-12    25.218876    25.473612    25.473612    16364.653 
      51            0   -4503.4949    14502.097     18597.24    12454.525    12454.525 -2.5236168e-11 1.0839884e-11 1.0530055e-12    25.218876    25.473612    25.473612    16364.653 
      52            0   -4503.4949    14502.097     18597.24    12454.525    12454.525 1.951383e-11 -6.4843992e-13 -3.9843558e-12    25.218876    25.473612    25.473612    16364.653 
      53            0   -4503.4949    14502.097     18597.24    12454.525    12454.525 -7.3166034e-13 9.0857167e-12 4.1705377e-13    25.218876    25.473612    25.473612    16364.653 
      54            0   -4503.4949    14502.097     18597.24    12454.525    12454.525 -3.7617328e-12 2.1520461e-11 -2.007609e-11    25.218876    25.473612    25.473612    16364.653 
      55            0   -4503.4949    14502.097     18597.24    12454.525    12454.525 8.5552289e-12 1.2684151e-11 1.1174444e-11    25.218876    25.473612    25.473612    16364.653 
      56            0   -4503.4949    14502.097     18597.24    12454.525    12454.525 -2.816196e-11 1.2265076e-11 -1.7344741e-11    25.218876    25.473612    25.473612    16364.653 
Loop time of 0.337641 on 1 procs for 55 steps with 1372 atoms

99.7% CPU use with 1 MPI tasks x 1 OpenMP threads

Minimization stats:
  Stopping criterion = force tolerance
  Energy initial, next-to-last, final = 
          -4503.494897     -4503.49489748     -4503.49489748
  Force two-norm initial, final = 0.00288693 7.7724e-11
  Force max component initial, final = 0.000137109 4.09306e-12
  Final line search alpha, max atom move = 1 4.09306e-12
  Iterations, force evaluations = 55 110

MPI task timing breakdown:
Section |  min time  |  avg time  |  max time  |%varavg| %total
---------------------------------------------------------------
Pair    | 0.33267    | 0.33267    | 0.33267    |   0.0 | 98.53
Bond    | 8.696e-06  | 8.696e-06  | 8.696e-06  |   0.0 |  0.00
Neigh   | 0          | 0          | 0          |   0.0 |  0.00
Comm    | 0.0012567  | 0.0012567  | 0.0012567  |   0.0 |  0.37
Output  | 0.0012528  | 0.0012528  | 0.0012528  |   0.0 |  0.37
Modify  | 0          | 0          | 0          |   0.0 |  0.00
Other   |            | 0.002454   |            |       |  0.73

Nlocal:    1372 ave 1372 max 1372 min
Histogram: 1 0 0 0 0 0 0 0 0 0
Nghost:    3258 ave 3258 max 3258 min
Histogram: 1 0 0 0 0 0 0 0 0 0
Neighs:    91924 ave 91924 max 91924 min
Histogram: 1 0 0 0 0 0 0 0 0 0

Total # of neighbors = 91924
Ave neighs/atom = 67
Ave special neighs/atom = 0
Neighbor list builds = 0
Dangerous builds = 0
OMP_NUM_THREADS environment is not set. Defaulting to 1 thread. (../comm.cpp:88)
  using 1 OpenMP thread(s) per MPI task
Reading restart file ...
  restart file = 30 Apr 2019, LAMMPS = 30 Apr 2019
  restoring atom style full from restart
  orthogonal box = (-2.32233e-14 -2.32496e-14 -2.31862e-14) to (25.4736 25.4736 25.4736)
  1 by 1 by 1 MPI processor grid
  pair style eam/fs stores no restart info
  1372 atoms
Finding 1-2 1-3 1-4 neighbors ...
  special bond factors lj:   0          0          0         
  special bond factors coul: 0          0          0         
  0 = max # of 1-2 neighbors
  0 = max # of 1-3 neighbors
  0 = max # of 1-4 neighbors
  1 = max # of special neighbors
  special bonds CPU = 0.00012307 secs
  read_restart CPU = 0.000630281 secs
Changing box ...
  triclinic box = (-2.32233e-14 -2.32496e-14 -2.31862e-14) to (25.4736 25.4736 25.4736) with tilt (0 0 0)
Changing box ...
  triclinic box = (-2.32233e-14 -2.32496e-14 -2.31862e-14) to (25.7283 25.4736 25.4736) with tilt (0 0 0)
  triclinic box = (-2.32233e-14 -2.32496e-14 -2.31862e-14) to (25.7283 25.4736 25.4736) with tilt (0 0 0)
  triclinic box = (-2.32233e-14 -2.32496e-14 -2.31862e-14) to (25.7283 25.4736 25.4736) with tilt (0 0 0)
Neighbor list info ...
  update every 1 steps, delay 0 steps, check yes
  max neighbors/atom: 2000, page size: 100000
  master list distance cutoff = 7
  ghost atom cutoff = 7
  1 neighbor lists, perpetual/occasional/extra = 1 0 0
  (1) pair eam/fs, perpetual
      attributes: half, newton on
      pair build: half/nsq/newton
      stencil: none
      bin: none
Setting up cg style minimization ...
  Unit style    : metal
  Current step  : 1
Per MPI rank memory allocation (min/avg/max) = 7.179 | 7.179 | 7.179 Mbytes
Step Temp PotEng Press Pxx Pyy Pzz Pxy Pxz Pyz Lx Ly Lz Volume 
       1            0     -4503.58    -13933.84   -16144.586   -12828.467   -12828.467 9.6923689e-08 3.2072702e-07 2.1216258e-07    25.728348    25.473612    25.473612    16695.252 
       2            0     -4503.58    -13933.84   -16144.586   -12828.467   -12828.467 -1.4681264e-07 1.4614569e-07 -1.0411422e-07    25.728348    25.473612    25.473612    16695.252 
       3            0     -4503.58    -13933.84   -16144.586   -12828.467   -12828.467 -1.178238e-07 1.1366157e-08 -1.025784e-07    25.728348    25.473612    25.473612    16695.252 
       4            0     -4503.58    -13933.84   -16144.586   -12828.467   -12828.467 -3.7892968e-08 -9.9052325e-09 -3.2604472e-08    25.728348    25.473612    25.473612    16695.252 
       5            0     -4503.58    -13933.84   -16144.586   -12828.467   -12828.467 -2.2579136e-08 -9.6511185e-09 -1.1531807e-08    25.728348    25.473612    25.473612    16695.252 
       6            0     -4503.58    -13933.84   -16144.586   -12828.467   -12828.467 -1.5411662e-08 -1.8359119e-09 -6.5426462e-09    25.728348    25.473612    25.473612    16695.252 
       7            0     -4503.58    -13933.84   -16144.586   -12828.467   -12828.467 -1.2086331e-08 8.1912881e-10 -5.0326429e-09    25.728348    25.473612    25.473612    16695.252 
       8            0     -4503.58    -13933.84   -16144.586   -12828.467   -12828.467 -8.1800104e-09 1.6614364e-09 -2.9089363e-09    25.728348    25.473612    25.473612    16695.252 
       9            0     -4503.58    -13933.84   -16144.586   -12828.467   -12828.467 -4.6439375e-09 1.3094461e-09 -8.1640614e-10    25.728348    25.473612    25.473612    16695.252 
      10            0     -4503.58    -13933.84   -16144.586   -12828.467   -12828.467 -2.3420199e-09 9.0189259e-10 -1.9234957e-11    25.728348    25.473612    25.473612    16695.252 
      11            0     -4503.58    -13933.84   -16144.586   -12828.467   -12828.467 -9.5077831e-10 5.464328e-10 -6.1840129e-11    25.728348    25.473612    25.473612    16695.252 
      12            0     -4503.58    -13933.84   -16144.586   -12828.467   -12828.467 -2.9881368e-10 3.4174262e-10 -1.6884255e-10    25.728348    25.473612    25.473612    16695.252 
      13            0     -4503.58    -13933.84   -16144.586   -12828.467   -12828.467 -5.4479103e-11 2.4487196e-10 -1.7453082e-10    25.728348    25.473612    25.473612    16695.252 
      14            0     -4503.58    -13933.84   -16144.586   -12828.467   -12828.467 3.9188923e-11 2.1566085e-10 -1.4752486e-10    25.728348    25.473612    25.473612    16695.252 
      15            0     -4503.58    -13933.84   -16144.586   -12828.467   -12828.467 6.5233021e-11 1.5828293e-10 -9.9859092e-11    25.728348    25.473612    25.473612    16695.252 
      16            0     -4503.58    -13933.84   -16144.586   -12828.467   -12828.467 2.7343099e-11 1.1899595e-10 -7.5155028e-11    25.728348    25.473612    25.473612    16695.252 
      17            0     -4503.58    -13933.84   -16144.586   -12828.467   -12828.467 2.5609101e-11 7.976824e-11 -4.8788769e-11    25.728348    25.473612    25.473612    16695.252 
      18            0     -4503.58    -13933.84   -16144.586   -12828.467   -12828.467 2.3156599e-12 9.266818e-11 -3.9085444e-11    25.728348    25.473612    25.473612    16695.252 
      19            0     -4503.58    -13933.84   -16144.586   -12828.467   -12828.467 2.8154495e-11 4.6485832e-11 -3.3384226e-11    25.728348    25.473612    25.473612    16695.252 
      20            0     -4503.58    -13933.84   -16144.586   -12828.467   -12828.467 9.1920543e-12 6.0395939e-11 -2.2077328e-11    25.728348    25.473612    25.473612    16695.252 
      21            0     -4503.58    -13933.84   -16144.586   -12828.467   -12828.467 4.3061951e-12 2.5153294e-11 3.1167172e-12    25.728348    25.473612    25.473612    16695.252 
      22            0     -4503.58    -13933.84   -16144.586   -12828.467   -12828.467 -8.802837e-12 2.9925451e-12 -1.0913562e-11    25.728348    25.473612    25.473612    16695.252 
      23            0     -4503.58    -13933.84   -16144.586   -12828.467   -12828.467 -8.6881361e-12 1.0183077e-11 -3.089372e-12    25.728348    25.473612    25.473612    16695.252 
      24            0     -4503.58    -13933.84   -16144.586   -12828.467   -12828.467 -2.9923786e-12 -4.9659334e-13 -1.1341051e-11    25.728348    25.473612    25.473612    16695.252 
      25            0     -4503.58    -13933.84   -16144.586   -12828.467   -12828.467 -3.9261339e-12 9.3192408e-13 -4.7951023e-12    25.728348    25.473612    25.473612    16695.252 
      26            0     -4503.58    -13933.84   -16144.586   -12828.467   -12828.467 4.5940295e-12 3.7007275e-13 -8.3195884e-12    25.728348    25.473612    25.473612    16695.252 
      27            0     -4503.58    -13933.84   -16144.586   -12828.467   -12828.467 3.0940945e-12 5.1505536e-12 8.469178e-12    25.728348    25.473612    25.473612    16695.252 
      28            0     -4503.58    -13933.84   -16144.586   -12828.467   -12828.467 8.9586571e-12 9.4164619e-12 7.9424776e-12    25.728348    25.473612    25.473612    16695.252 
      29            0     -4503.58    -13933.84   -16144.586   -12828.467   -12828.467 6.1515646e-12 -9.6287169e-12 -6.7322682e-12    25.728348    25.473612    25.473612    16695.252 
      30            0     -4503.58    -13933.84   -16144.586   -12828.467   -12828.467 -7.0615141e-12 -6.4392325e-13 3.7394342e-12    25.728348    25.473612    25.473612    16695.252 
      31            0     -4503.58    -13933.84   -16144.586   -12828.467   -12828.467 3.5652172e-12 -4.1325622e-12 -1.2111104e-11    25.728348    25.473612    25.473612    16695.252 
      32            0     -4503.58    -13933.84   -16144.586   -12828.467   -12828.467 -1.4238228e-11 6.2184873e-12 -7.6959504e-12    25.728348    25.473612    25.473612    16695.252 
      33            0     -4503.58    -13933.84   -16144.586   -12828.467   -12828.467 1.1529689e-11 -1.1361883e-12  5.12508e-12    25.728348    25.473612    25.473612    16695.252 
      34            0     -4503.58    -13933.84   -16144.586   -12828.467   -12828.467 -3.3301553e-12 -7.7643693e-12 3.3047484e-12    25.728348    25.473612    25.473612    16695.252 
      35            0     -4503.58    -13933.84   -16144.586   -12828.467   -12828.467 -6.452384e-12 -1.1521865e-11 5.3664722e-12    25.728348    25.473612    25.473612    16695.252 
      36            0     -4503.58    -13933.84   -16144.586   -12828.467   -12828.467 5.0796355e-12 -1.2876967e-11 -8.8615427e-12    25.728348    25.473612    25.473612    16695.252 
      37            0     -4503.58    -13933.84   -16144.586   -12828.467   -12828.467 8.8957298e-12 1.3461958e-11 -1.0823757e-11    25.728348    25.473612    25.473612    16695.252 
      38            0     -4503.58    -13933.84   -16144.586   -12828.467   -12828.467 1.0482564e-11 1.0761076e-11 2.386075e-12    25.728348    25.473612    25.473612    16695.252 
      39            0     -4503.58    -13933.84   -16144.586   -12828.467   -12828.467 -1.0948194e-11 2.4579955e-12 -5.2502661e-12    25.728348    25.473612    25.473612    16695.252 
      40            0     -4503.58    -13933.84   -16144.586   -12828.467   -12828.467 1.0952355e-11  1.59952e-11 -8.9989579e-12    25.728348    25.473612    25.473612    16695.252 
      41            0     -4503.58    -13933.84   -16144.586   -12828.467   -12828.467 -1.3915601e-11 1.8113421e-11 1.2102533e-12    25.728348    25.473612    25.473612    16695.252 
      42            0     -4503.58    -13933.84   -16144.586   -12828.467   -12828.467 -2.2334215e-12 2.9647438e-12 3.8934767e-12    25.728348    25.473612    25.473612    16695.252 
      43            0     -4503.58    -13933.84   -16144.586   -12828.467   -12828.467 3.798448e-12 8.3149003e-12 -1.0525724e-12    25.728348    25.473612    25.473612    16695.252 
      44            0     -4503.58    -13933.84   -16144.586   -12828.467   -12828.467 6.302557e-12 4.3081928e-12 -2.3361584e-12    25.728348    25.473612    25.473612    16695.252 
      45            0     -4503.58    -13933.84   -16144.586   -12828.467   -12828.467 -4.1884977e-12 -3.2271076e-12 1.1927239e-11    25.728348    25.473612    25.473612    16695.252 
      46            0     -4503.58    -13933.84   -16144.586   -12828.467   -12828.467 -4.0035445e-12 -1.4809569e-12 -2.7353013e-12    25.728348    25.473612    25.473612    16695.252 
      47            0     -4503.58    -13933.84   -16144.586   -12828.467   -12828.467 7.1633964e-13 1.5115882e-13  2.10545e-13    25.728348    25.473612    25.473612    16695.252 
      48            0     -4503.58    -13933.84   -16144.586   -12828.467   -12828.467 7.6315226e-12 -5.6934269e-12 -6.1743906e-12    25.728348    25.473612    25.473612    16695.252 
      49            0     -4503.58    -13933.84   -16144.586   -12828.467   -12828.467 -1.0985817e-11 -4.8387469e-12 1.138849e-11    25.728348    25.473612    25.473612    16695.252 
      50            0     -4503.58    -13933.84   -16144.586   -12828.467   -12828.467 6.4856789e-12 -9.8802598e-13 4.0273952e-12    25.728348    25.473612    25.473612    16695.252 
      51            0     -4503.58    -13933.84   -16144.586   -12828.467   -12828.467 -9.2739598e-12 6.6939384e-13 -6.2690493e-12    25.728348    25.473612    25.473612    16695.252 
      52            0     -4503.58    -13933.84   -16144.586   -12828.467   -12828.467 -1.0879107e-12 1.4829546e-12 1.5966539e-11    25.728348    25.473612    25.473612    16695.252 
      53            0     -4503.58    -13933.84   -16144.586   -12828.467   -12828.467 2.2126455e-11 1.4518904e-11 -2.6393483e-11    25.728348    25.473612    25.473612    16695.252 
      54            0     -4503.58    -13933.84   -16144.586   -12828.467   -12828.467 2.7698022e-12 5.6151839e-12    1.477e-13    25.728348    25.473612    25.473612    16695.252 
      55            0     -4503.58    -13933.84   -16144.586   -12828.467   -12828.467 3.9118171e-12 -6.7755109e-12 9.3623207e-13    25.728348    25.473612    25.473612    16695.252 
      56            0     -4503.58    -13933.84   -16144.586   -12828.467   -12828.467 3.423381e-12 -1.0418805e-11 2.5960029e-12    25.728348    25.473612    25.473612    16695.252 
      57            0     -4503.58    -13933.84   -16144.586   -12828.467   -12828.467 6.7588635e-13 8.715105e-12 -1.021723e-11    25.728348    25.473612    25.473612    16695.252 
      58            0     -4503.58    -13933.84   -16144.586   -12828.467   -12828.467 5.2975506e-12 -6.7418831e-12 4.0178658e-12    25.728348    25.473612    25.473612    16695.252 
      59            0     -4503.58    -13933.84   -16144.586   -12828.467   -12828.467 1.1126155e-11 -3.7944526e-12 -7.5528995e-12    25.728348    25.473612    25.473612    16695.252 
      60            0     -4503.58    -13933.84   -16144.586   -12828.467   -12828.467 -6.8377724e-12 3.9635907e-12 -6.029983e-12    25.728348    25.473612    25.473612    16695.252 
Loop time of 0.366072 on 1 procs for 59 steps with 1372 atoms

99.7% CPU use with 1 MPI tasks x 1 OpenMP threads

Minimization stats:
  Stopping criterion = force tolerance
  Energy initial, next-to-last, final = 
        -4503.58001128     -4503.58001174     -4503.58001173
  Force two-norm initial, final = 0.00283637 8.59525e-11
  Force max component initial, final = 0.000134988 4.60681e-12
  Final line search alpha, max atom move = 1 4.60681e-12
  Iterations, force evaluations = 59 118

MPI task timing breakdown:
Section |  min time  |  avg time  |  max time  |%varavg| %total
---------------------------------------------------------------
Pair    | 0.36084    | 0.36084    | 0.36084    |   0.0 | 98.57
Bond    | 1.2399e-05 | 1.2399e-05 | 1.2399e-05 |   0.0 |  0.00
Neigh   | 0          | 0          | 0          |   0.0 |  0.00
Comm    | 0.001364   | 0.001364   | 0.001364   |   0.0 |  0.37
Output  | 0.001334   | 0.001334   | 0.001334   |   0.0 |  0.36
Modify  | 0          | 0          | 0          |   0.0 |  0.00
Other   |            | 0.002526   |            |       |  0.69

Nlocal:    1372 ave 1372 max 1372 min
Histogram: 1 0 0 0 0 0 0 0 0 0
Nghost:    3258 ave 3258 max 3258 min
Histogram: 1 0 0 0 0 0 0 0 0 0
Neighs:    91924 ave 91924 max 91924 min
Histogram: 1 0 0 0 0 0 0 0 0 0

Total # of neighbors = 91924
Ave neighs/atom = 67
Ave special neighs/atom = 0
Neighbor list builds = 0
Dangerous builds = 0
OMP_NUM_THREADS environment is not set. Defaulting to 1 thread. (../comm.cpp:88)
  using 1 OpenMP thread(s) per MPI task
Reading restart file ...
  restart file = 30 Apr 2019, LAMMPS = 30 Apr 2019
  restoring atom style full from restart
  orthogonal box = (-2.32233e-14 -2.32496e-14 -2.31862e-14) to (25.4736 25.4736 25.4736)
  1 by 1 by 1 MPI processor grid
  pair style eam/fs stores no restart info
  1372 atoms
Finding 1-2 1-3 1-4 neighbors ...
  special bond factors lj:   0          0          0         
  special bond factors coul: 0          0          0         
  0 = max # of 1-2 neighbors
  0 = max # of 1-3 neighbors
  0 = max # of 1-4 neighbors
  1 = max # of special neighbors
  special bonds CPU = 0.000123607 secs
  read_restart CPU = 0.000494182 secs
Changing box ...
  triclinic box = (-2.32233e-14 -2.32496e-14 -2.31862e-14) to (25.4736 25.4736 25.4736) with tilt (0 0 0)
Changing box ...
  triclinic box = (-2.32233e-14 -2.32496e-14 -2.31862e-14) to (25.4736 25.2189 25.4736) with tilt (0 0 0)
  triclinic box = (-2.32233e-14 -2.32496e-14 -2.31862e-14) to (25.4736 25.2189 25.4736) with tilt (0 0 0)
Neighbor list info ...
  update every 1 steps, delay 0 steps, check yes
  max neighbors/atom: 2000, page size: 100000
  master list distance cutoff = 7
  ghost atom cutoff = 7
  1 neighbor lists, perpetual/occasional/extra = 1 0 0
  (1) pair eam/fs, perpetual
      attributes: half, newton on
      pair build: half/nsq/newton
      stencil: none
      bin: none
Setting up cg style minimization ...
  Unit style    : metal
  Current step  : 1
Per MPI rank memory allocation (min/avg/max) = 7.179 | 7.179 | 7.179 Mbytes
Step Temp PotEng Press Pxx Pyy Pzz Pxy Pxz Pyz Lx Ly Lz Volume 
       1            0   -4503.4949    14502.097    12454.525     18597.24    12454.525 3.9465229e-07 3.5608084e-07 1.3588955e-07    25.473612    25.218876    25.473612    16364.653 
       2            0   -4503.4949    14502.097    12454.525     18597.24    12454.525 -1.1862957e-07 1.1280347e-07 -6.7323134e-08    25.473612    25.218876    25.473612    16364.653 
       3            0   -4503.4949    14502.097    12454.525     18597.24    12454.525 -1.2178338e-07 1.6773824e-08 -9.4263045e-08    25.473612    25.218876    25.473612    16364.653 
       4            0   -4503.4949    14502.097    12454.525     18597.24    12454.525 -4.3216452e-08 -1.1667541e-09 -2.8780418e-08    25.473612    25.218876    25.473612    16364.653 
       5            0   -4503.4949    14502.097    12454.525     18597.24    12454.525 -2.6305056e-08 -3.1608466e-09 -1.2826547e-08    25.473612    25.218876    25.473612    16364.653 
       6            0   -4503.4949    14502.097    12454.525     18597.24    12454.525 -1.7222741e-08 5.1961344e-10 -7.8277927e-09    25.473612    25.218876    25.473612    16364.653 
       7            0   -4503.4949    14502.097    12454.525     18597.24    12454.525 -1.2008227e-08 1.3394258e-09 -5.8887555e-09    25.473612    25.218876    25.473612    16364.653 
       8            0   -4503.4949    14502.097    12454.525     18597.24    12454.525 -6.8751413e-09 1.461521e-09 -3.1413098e-09    25.473612    25.218876    25.473612    16364.653 
       9            0   -4503.4949    14502.097    12454.525     18597.24    12454.525 -3.2944816e-09 9.4913907e-10 -8.3843546e-10    25.473612    25.218876    25.473612    16364.653 
      10            0   -4503.4949    14502.097    12454.525     18597.24    12454.525 -1.4659839e-09 5.3121903e-10 -9.5455314e-11    25.473612    25.218876    25.473612    16364.653 
      11            0   -4503.4949    14502.097    12454.525     18597.24    12454.525 -6.4640578e-10 2.969184e-10 -7.1378628e-11    25.473612    25.218876    25.473612    16364.653 
      12            0   -4503.4949    14502.097    12454.525     18597.24    12454.525 -3.0164549e-10 1.7682564e-10 -1.1909086e-10    25.473612    25.218876    25.473612    16364.653 
      13            0   -4503.4949    14502.097    12454.525     18597.24    12454.525 -1.1470746e-10 1.4105683e-10 -8.8433099e-11    25.473612    25.218876    25.473612    16364.653 
      14            0   -4503.4949    14502.097    12454.525     18597.24    12454.525 1.1044878e-11 1.4064276e-10 -7.059865e-11    25.473612    25.218876    25.473612    16364.653 
      15            0   -4503.4949    14502.097    12454.525     18597.24    12454.525 2.4781682e-11 1.060871e-10 -4.2563932e-11    25.473612    25.218876    25.473612    16364.653 
      16            0   -4503.4949    14502.097    12454.525     18597.24    12454.525 5.1008512e-11 5.2283823e-11 -1.7442965e-11    25.473612    25.218876    25.473612    16364.653 
      17            0   -4503.4949    14502.097    12454.525     18597.24    12454.525 5.0779911e-11 4.8381125e-11 -1.418808e-11    25.473612    25.218876    25.473612    16364.653 
      18            0   -4503.4949    14502.097    12454.525     18597.24    12454.525 3.3964121e-12 4.0326662e-11 -9.7255544e-13    25.473612    25.218876    25.473612    16364.653 
      19            0   -4503.4949    14502.097    12454.525     18597.24    12454.525 -6.3994804e-13 1.8179586e-11 -7.1786074e-12    25.473612    25.218876    25.473612    16364.653 
      20            0   -4503.4949    14502.097    12454.525     18597.24    12454.525 -3.1029158e-11 5.970131e-12 1.296034e-12    25.473612    25.218876    25.473612    16364.653 
      21            0   -4503.4949    14502.097    12454.525     18597.24    12454.525 -3.8491991e-11 1.2839552e-11 9.0109883e-12    25.473612    25.218876    25.473612    16364.653 
      22            0   -4503.4949    14502.097    12454.525     18597.24    12454.525 -1.5241565e-11 -7.4935742e-12 5.4631827e-12    25.473612    25.218876    25.473612    16364.653 
      23            0   -4503.4949    14502.097    12454.525     18597.24    12454.525 3.4015073e-12 -1.0495623e-11 1.941008e-12    25.473612    25.218876    25.473612    16364.653 
      24            0   -4503.4949    14502.097    12454.525     18597.24    12454.525 -5.5968789e-11 2.817266e-12 -1.0764995e-11    25.473612    25.218876    25.473612    16364.653 
      25            0   -4503.4949    14502.097    12454.525     18597.24    12454.525 -3.8848141e-11 -9.4981672e-13 1.7482992e-12    25.473612    25.218876    25.473612    16364.653 
      26            0   -4503.4949    14502.097    12454.525     18597.24    12454.525 -1.3634901e-11 -1.1446544e-11 7.163535e-12    25.473612    25.218876    25.473612    16364.653 
      27            0   -4503.4949    14502.097    12454.525     18597.24    12454.525 2.0957959e-13 -2.1110558e-11 -4.4417617e-12    25.473612    25.218876    25.473612    16364.653 
      28            0   -4503.4949    14502.097    12454.525     18597.24    12454.525 3.8050414e-11 7.0020642e-12 -1.9973664e-13    25.473612    25.218876    25.473612    16364.653 
      29            0   -4503.4949    14502.097    12454.525     18597.24    12454.525 -1.3585139e-11 -5.5035022e-12 1.5047564e-12    25.473612    25.218876    25.473612    16364.653 
      30            0   -4503.4949    14502.097    12454.525     18597.24    12454.525 -1.9178061e-12 -2.1400386e-12 -1.0294274e-11    25.473612    25.218876    25.473612    16364.653 
      31            0   -4503.4949    14502.097    12454.525     18597.24    12454.525 2.4644114e-11 8.6496586e-12 -3.9560536e-12    25.473612    25.218876    25.473612    16364.653 
      32            0   -4503.4949    14502.097    12454.525     18597.24    12454.525 -2.8471064e-11 -5.1888781e-12 5.1463631e-12    25.473612    25.218876    25.473612    16364.653 
      33            0   -4503.4949    14502.097    12454.525     18597.24    12454.525 -1.9644605e-11 -5.7806771e-12 -2.036368e-11    25.473612    25.218876    25.473612    16364.653 
      34            0   -4503.4949    14502.097    12454.525     18597.24    12454.525 -1.8288112e-11 -4.0760173e-12 8.7781767e-12    25.473612    25.218876    25.473612    16364.653 
      35            0   -4503.4949    14502.097    12454.525     18597.24    12454.525 -7.129782e-12 -7.8094721e-12 1.0172033e-11    25.473612    25.218876    25.473612    16364.653 
      36            0   -4503.4949    14502.097    12454.525     18597.24    12454.525 1.0863831e-11 -3.699827e-12 -7.9247484e-12    25.473612    25.218876    25.473612    16364.653 
      37            0   -4503.4949    14502.097    12454.525     18597.24    12454.525 -8.1523742e-12 1.2476609e-11 -1.2253291e-11    25.473612    25.218876    25.473612    16364.653 
      38            0   -4503.4949    14502.097    12454.525     18597.24    12454.525 4.3438511e-11 1.2393983e-11 5.2293639e-12    25.473612    25.218876    25.473612    16364.653 
      39            0   -4503.4949    14502.097    12454.525     18597.24    12454.525 5.5350071e-12 -1.1185758e-11 2.2987627e-12    25.473612    25.218876    25.473612    16364.653 
      40            0   -4503.4949    14502.097    12454.525     18597.24    12454.525 3.6651801e-11 4.5931727e-12 1.4022283e-11    25.473612    25.218876    25.473612    16364.653 
      41            0   -4503.4949    14502.097    12454.525     18597.24    12454.525 -3.5283759e-12 2.8456288e-13 4.3803283e-12    25.473612    25.218876    25.473612    16364.653 
      42            0   -4503.4949    14502.097    12454.525     18597.24    12454.525 -6.7077356e-12 -3.6994873e-12 3.8862667e-12    25.473612    25.218876    25.473612    16364.653 
      43            0   -4503.4949    14502.097    12454.525     18597.24    12454.525 5.9905115e-12 -1.7853328e-12 1.0685478e-11    25.473612    25.218876    25.473612    16364.653 
      44            0   -4503.4949    14502.097    12454.525     18597.24    12454.525 4.0274097e-11 2.2375338e-11 5.3641551e-12    25.473612    25.218876    25.473612    16364.653 
      45            0   -4503.4949    14502.097    12454.525     18597.24    12454.525 1.9354352e-11 1.4031897e-11 9.7052837e-12    25.473612    25.218876    25.473612    16364.653 
      46            0   -4503.4949    14502.097    12454.525     18597.24    12454.525 -9.2449394e-12 2.9965295e-12 1.1270936e-12    25.473612    25.218876    25.473612    16364.653 
      47            0   -4503.4949    14502.097    12454.525     18597.24    12454.525 1.0795557e-11 -1.2968034e-11 5.4937335e-13    25.473612    25.218876    25.473612    16364.653 
      48            0   -4503.4949    14502.097    12454.525     18597.24    12454.525 -1.1233058e-12 2.8879184e-12 2.581163e-12    25.473612    25.218876    25.473612    16364.653 
      49            0   -4503.4949    14502.097    12454.525     18597.24    12454.525 -2.6419936e-12 5.7424637e-12 3.154156e-12    25.473612    25.218876    25.473612    16364.653 
      50            0   -4503.4949    14502.097    12454.525     18597.24    12454.525 1.8615219e-11 1.5311368e-11 5.9694444e-12    25.473612    25.218876    25.473612    16364.653 
      51            0   -4503.4949    14502.097    12454.525     18597.24    12454.525 2.5193199e-11 -3.7436451e-12 8.7541141e-12    25.473612    25.218876    25.473612    16364.653 
      52            0   -4503.4949    14502.097    12454.525     18597.24    12454.525 3.9457688e-11 8.9133315e-12 4.1609177e-12    25.473612    25.218876    25.473612    16364.653 
      53            0   -4503.4949    14502.097    12454.525     18597.24    12454.525 1.8661754e-12 2.7449576e-11 9.3342517e-12    25.473612    25.218876    25.473612    16364.653 
      54            0   -4503.4949    14502.097    12454.525     18597.24    12454.525 -5.6555918e-12 8.1726698e-12 1.2081146e-11    25.473612    25.218876    25.473612    16364.653 
      55            0   -4503.4949    14502.097    12454.525     18597.24    12454.525 3.3912321e-11 1.1463018e-11 9.7183537e-12    25.473612    25.218876    25.473612    16364.653 
      56            0   -4503.4949    14502.097    12454.525     18597.24    12454.525 -4.0257114e-11 7.6386155e-12 -1.5920489e-12    25.473612    25.218876    25.473612    16364.653 
Loop time of 0.340519 on 1 procs for 55 steps with 1372 atoms

99.7% CPU use with 1 MPI tasks x 1 OpenMP threads

Minimization stats:
  Stopping criterion = force tolerance
  Energy initial, next-to-last, final = 
          -4503.494897     -4503.49489748     -4503.49489748
  Force two-norm initial, final = 0.00288725 8.12797e-11
  Force max component initial, final = 0.000136609 4.75146e-12
  Final line search alpha, max atom move = 1 4.75146e-12
  Iterations, force evaluations = 55 110

MPI task timing breakdown:
Section |  min time  |  avg time  |  max time  |%varavg| %total
---------------------------------------------------------------
Pair    | 0.33551    | 0.33551    | 0.33551    |   0.0 | 98.53
Bond    | 1.2184e-05 | 1.2184e-05 | 1.2184e-05 |   0.0 |  0.00
Neigh   | 0          | 0          | 0          |   0.0 |  0.00
Comm    | 0.0012938  | 0.0012938  | 0.0012938  |   0.0 |  0.38
Output  | 0.0012932  | 0.0012932  | 0.0012932  |   0.0 |  0.38
Modify  | 0          | 0          | 0          |   0.0 |  0.00
Other   |            | 0.00241    |            |       |  0.71

Nlocal:    1372 ave 1372 max 1372 min
Histogram: 1 0 0 0 0 0 0 0 0 0
Nghost:    3258 ave 3258 max 3258 min
Histogram: 1 0 0 0 0 0 0 0 0 0
Neighs:    91924 ave 91924 max 91924 min
Histogram: 1 0 0 0 0 0 0 0 0 0

Total # of neighbors = 91924
Ave neighs/atom = 67
Ave special neighs/atom = 0
Neighbor list builds = 0
Dangerous builds = 0
OMP_NUM_THREADS environment is not set. Defaulting to 1 thread. (../comm.cpp:88)
  using 1 OpenMP thread(s) per MPI task
Reading restart file ...
  restart file = 30 Apr 2019, LAMMPS = 30 Apr 2019
  restoring atom style full from restart
  orthogonal box = (-2.32233e-14 -2.32496e-14 -2.31862e-14) to (25.4736 25.4736 25.4736)
  1 by 1 by 1 MPI processor grid
  pair style eam/fs stores no restart info
  1372 atoms
Finding 1-2 1-3 1-4 neighbors ...
  special bond factors lj:   0          0          0         
  special bond factors coul: 0          0          0         
  0 = max # of 1-2 neighbors
  0 = max # of 1-3 neighbors
  0 = max # of 1-4 neighbors
  1 = max # of special neighbors
  special bonds CPU = 0.000129438 secs
  read_restart CPU = 0.000604169 secs
Changing box ...
  triclinic box = (-2.32233e-14 -2.32496e-14 -2.31862e-14) to (25.4736 25.4736 25.4736) with tilt (0 0 0)
Changing box ...
  triclinic box = (-2.32233e-14 -2.32496e-14 -2.31862e-14) to (25.4736 25.7283 25.4736) with tilt (0 0 0)
  triclinic box = (-2.32233e-14 -2.32496e-14 -2.31862e-14) to (25.4736 25.7283 25.4736) with tilt (0 0 0)
Neighbor list info ...
  update every 1 steps, delay 0 steps, check yes
  max neighbors/atom: 2000, page size: 100000
  master list distance cutoff = 7
  ghost atom cutoff = 7
  1 neighbor lists, perpetual/occasional/extra = 1 0 0
  (1) pair eam/fs, perpetual
      attributes: half, newton on
      pair build: half/nsq/newton
      stencil: none
      bin: none
Setting up cg style minimization ...
  Unit style    : metal
  Current step  : 1
Per MPI rank memory allocation (min/avg/max) = 7.179 | 7.179 | 7.179 Mbytes
Step Temp PotEng Press Pxx Pyy Pzz Pxy Pxz Pyz Lx Ly Lz Volume 
       1            0     -4503.58    -13933.84   -12828.467   -16144.586   -12828.467 6.7083381e-09 3.3514103e-07 2.0682447e-08    25.473612    25.728348    25.473612    16695.252 
       2            0     -4503.58    -13933.84   -12828.467   -16144.586   -12828.467 -1.5828422e-07 1.2280089e-07 -1.0557463e-07    25.473612    25.728348    25.473612    16695.252 
       3            0     -4503.58    -13933.84   -12828.467   -16144.586   -12828.467 -1.2239502e-07 7.9484403e-09 -1.0102615e-07    25.473612    25.728348    25.473612    16695.252 
       4            0     -4503.58    -13933.84   -12828.467   -16144.586   -12828.467 -3.8511055e-08 -8.8313864e-09 -3.605558e-08    25.473612    25.728348    25.473612    16695.252 
       5            0     -4503.58    -13933.84   -12828.467   -16144.586   -12828.467 -2.219771e-08 -7.0371292e-09 -1.2969694e-08    25.473612    25.728348    25.473612    16695.252 
       6            0     -4503.58    -13933.84   -12828.467   -16144.586   -12828.467 -1.4832166e-08 2.5117085e-10 -6.5342847e-09    25.473612    25.728348    25.473612    16695.252 
       7            0     -4503.58    -13933.84   -12828.467   -16144.586   -12828.467 -1.1608554e-08 2.3824807e-09 -4.5324929e-09    25.473612    25.728348    25.473612    16695.252 
       8            0     -4503.58    -13933.84   -12828.467   -16144.586   -12828.467 -7.7112676e-09 2.634717e-09 -2.5329726e-09    25.473612    25.728348    25.473612    16695.252 
       9            0     -4503.58    -13933.84   -12828.467   -16144.586   -12828.467 -4.267341e-09  1.84364e-09 -6.8645102e-10    25.473612    25.728348    25.473612    16695.252 
      10            0     -4503.58    -13933.84   -12828.467   -16144.586   -12828.467 -2.1149333e-09 1.1337386e-09 -5.2851252e-11    25.473612    25.728348    25.473612    16695.252 
      11            0     -4503.58    -13933.84   -12828.467   -16144.586   -12828.467 -8.2847884e-10 6.7950584e-10 -1.3430795e-10    25.473612    25.728348    25.473612    16695.252 
      12            0     -4503.58    -13933.84   -12828.467   -16144.586   -12828.467 -2.34443e-10 3.8442168e-10 -2.5704727e-10    25.473612    25.728348    25.473612    16695.252 
      13            0     -4503.58    -13933.84   -12828.467   -16144.586   -12828.467 -8.3237235e-15 2.6312572e-10 -2.4580674e-10    25.473612    25.728348    25.473612    16695.252 
      14            0     -4503.58    -13933.84   -12828.467   -16144.586   -12828.467 4.3681569e-11 2.0658982e-10 -2.0712025e-10    25.473612    25.728348    25.473612    16695.252 
      15            0     -4503.58    -13933.84   -12828.467   -16144.586   -12828.467 5.1029419e-11 1.5362997e-10 -1.4789239e-10    25.473612    25.728348    25.473612    16695.252 
      16            0     -4503.58    -13933.84   -12828.467   -16144.586   -12828.467 3.2016037e-11 8.9674137e-11 -1.07892e-10    25.473612    25.728348    25.473612    16695.252 
      17            0     -4503.58    -13933.84   -12828.467   -16144.586   -12828.467 2.266217e-11 5.339935e-11 -7.1132232e-11    25.473612    25.728348    25.473612    16695.252 
      18            0     -4503.58    -13933.84   -12828.467   -16144.586   -12828.467 -3.932127e-13 4.5213634e-11 -5.7017311e-11    25.473612    25.728348    25.473612    16695.252 
      19            0     -4503.58    -13933.84   -12828.467   -16144.586   -12828.467 4.3013674e-12 4.7273922e-11 -5.4760444e-11    25.473612    25.728348    25.473612    16695.252 
      20            0     -4503.58    -13933.84   -12828.467   -16144.586   -12828.467 1.2148308e-11 1.1219713e-11 -4.0429462e-11    25.473612    25.728348    25.473612    16695.252 
      21            0     -4503.58    -13933.84   -12828.467   -16144.586   -12828.467 2.8248387e-11 1.2585137e-11 -2.0543776e-11    25.473612    25.728348    25.473612    16695.252 
      22            0     -4503.58    -13933.84   -12828.467   -16144.586   -12828.467 -8.3347108e-12 6.2855766e-12 -2.6684624e-11    25.473612    25.728348    25.473612    16695.252 
      23            0     -4503.58    -13933.84   -12828.467   -16144.586   -12828.467 1.4443658e-11 3.0930956e-13 -5.8796015e-12    25.473612    25.728348    25.473612    16695.252 
      24            0     -4503.58    -13933.84   -12828.467   -16144.586   -12828.467 -2.0740388e-11 4.6423071e-12 1.7251463e-11    25.473612    25.728348    25.473612    16695.252 
      25            0     -4503.58    -13933.84   -12828.467   -16144.586   -12828.467 -1.3158808e-11 6.5086523e-12 -6.2847718e-12    25.473612    25.728348    25.473612    16695.252 
      26            0     -4503.58    -13933.84   -12828.467   -16144.586   -12828.467 -1.0834824e-11 5.9481328e-13 -1.3998368e-11    25.473612    25.728348    25.473612    16695.252 
      27            0     -4503.58    -13933.84   -12828.467   -16144.586   -12828.467 -6.2281429e-12 1.1904423e-11 -1.9182327e-12    25.473612    25.728348    25.473612    16695.252 
      28            0     -4503.58    -13933.84   -12828.467   -16144.586   -12828.467 1.0742265e-11 1.3316459e-11 -1.0442388e-11    25.473612    25.728348    25.473612    16695.252 
      29            0     -4503.58    -13933.84   -12828.467   -16144.586   -12828.467 7.6847945e-12 -8.1299472e-12 -1.0167071e-11    25.473612    25.728348    25.473612    16695.252 
      30            0     -4503.58    -13933.84   -12828.467   -16144.586   -12828.467 -5.9807618e-12 -2.2227671e-12 2.2822417e-12    25.473612    25.728348    25.473612    16695.252 
      31            0     -4503.58    -13933.84   -12828.467   -16144.586   -12828.467 3.5166067e-12 -2.6319614e-13 1.3797115e-11    25.473612    25.728348    25.473612    16695.252 
      32            0     -4503.58    -13933.84   -12828.467   -16144.586   -12828.467 2.5999983e-12 -7.3200489e-12 2.1445646e-12    25.473612    25.728348    25.473612    16695.252 
      33            0     -4503.58    -13933.84   -12828.467   -16144.586   -12828.467 -1.1423478e-11 -3.990726e-12 -5.6464827e-12    25.473612    25.728348    25.473612    16695.252 
      34            0     -4503.58    -13933.84   -12828.467   -16144.586   -12828.467 -7.7054373e-12 8.8384626e-12 6.542082e-12    25.473612    25.728348    25.473612    16695.252 
      35            0     -4503.58    -13933.84   -12828.467   -16144.586   -12828.467 -3.743012e-12 -1.1452944e-11 -4.0288932e-12    25.473612    25.728348    25.473612    16695.252 
      36            0     -4503.58    -13933.84   -12828.467   -16144.586   -12828.467 -6.2867419e-12 -9.3706814e-12 -7.2720205e-12    25.473612    25.728348    25.473612    16695.252 
      37            0     -4503.58    -13933.84   -12828.467   -16144.586   -12828.467 -1.8560572e-11 5.1841815e-12 -3.9983463e-12    25.473612    25.728348    25.473612    16695.252 
      38            0     -4503.58    -13933.84   -12828.467   -16144.586   -12828.467 1.5063276e-11 7.6218671e-12 9.2155902e-12    25.473612    25.728348    25.473612    16695.252 
      39            0     -4503.58    -13933.84   -12828.467   -16144.586   -12828.467 2.3263142e-12 -8.3232241e-12 -2.0652885e-12    25.473612    25.728348    25.473612    16695.252 
      40            0     -4503.58    -13933.84   -12828.467   -16144.586   -12828.467 -1.9667294e-12 9.1018252e-12 -1.6610425e-11    25.473612    25.728348    25.473612    16695.252 
      41            0     -4503.58    -13933.84   -12828.467   -16144.586   -12828.467 1.3415179e-11 -3.4941326e-12 7.5698879e-12    25.473612    25.728348    25.473612    16695.252 
      42            0     -4503.58    -13933.84   -12828.467   -16144.586   -12828.467 1.1499058e-11 1.4727996e-12 5.6948518e-12    25.473612    25.728348    25.473612    16695.252 
      43            0     -4503.58    -13933.84   -12828.467   -16144.586   -12828.467 1.7876029e-11 1.6026997e-11 -4.2747216e-12    25.473612    25.728348    25.473612    16695.252 
      44            0     -4503.58    -13933.84   -12828.467   -16144.586   -12828.467 -1.4886147e-12 -9.0700285e-12 3.6676228e-12    25.473612    25.728348    25.473612    16695.252 
      45            0     -4503.58    -13933.84   -12828.467   -16144.586   -12828.467 -9.1777375e-12 -7.4946806e-13 -9.0035918e-12    25.473612    25.728348    25.473612    16695.252 
      46            0     -4503.58    -13933.84   -12828.467   -16144.586   -12828.467 4.0087052e-13 6.2541129e-12 1.9917827e-12    25.473612    25.728348    25.473612    16695.252 
      47            0     -4503.58    -13933.84   -12828.467   -16144.586   -12828.467 -3.9081547e-12 -6.8505909e-12 1.6964562e-11    25.473612    25.728348    25.473612    16695.252 
      48            0     -4503.58    -13933.84   -12828.467   -16144.586   -12828.467 -1.7944949e-11 5.3558166e-12 -3.3615969e-12    25.473612    25.728348    25.473612    16695.252 
      49            0     -4503.58    -13933.84   -12828.467   -16144.586   -12828.467 -1.4174302e-11 -2.0860916e-12 -1.7178965e-11    25.473612    25.728348    25.473612    16695.252 
      50            0     -4503.58    -13933.84   -12828.467   -16144.586   -12828.467 9.2133631e-12 1.0360372e-11 4.6229504e-12    25.473612    25.728348    25.473612    16695.252 
      51            0     -4503.58    -13933.84   -12828.467   -16144.586   -12828.467 2.8467134e-12 -1.398036e-11 1.9117313e-11    25.473612    25.728348    25.473612    16695.252 
      52            0     -4503.58    -13933.84   -12828.467   -16144.586   -12828.467 -1.6705047e-11 1.4996686e-11 7.5169027e-12    25.473612    25.728348    25.473612    16695.252 
      53            0     -4503.58    -13933.84   -12828.467   -16144.586   -12828.467 1.8538597e-11 1.4524897e-11 -7.4170764e-12    25.473612    25.728348    25.473612    16695.252 
      54            0     -4503.58    -13933.84   -12828.467   -16144.586   -12828.467 9.0828471e-13 4.8442406e-12 3.5609221e-14    25.473612    25.728348    25.473612    16695.252 
      55            0     -4503.58    -13933.84   -12828.467   -16144.586   -12828.467 -4.8184371e-12 -3.8783557e-12 -1.3998477e-11    25.473612    25.728348    25.473612    16695.252 
      56            0     -4503.58    -13933.84   -12828.467   -16144.586   -12828.467 -2.8983205e-12 -2.9597496e-12 -5.6038094e-12    25.473612    25.728348    25.473612    16695.252 
      57            0     -4503.58    -13933.84   -12828.467   -16144.586   -12828.467 6.4259145e-14 9.3716803e-12 -5.9703867e-12    25.473612    25.728348    25.473612    16695.252 
      58            0     -4503.58    -13933.84   -12828.467   -16144.586   -12828.467 2.601663e-12 4.3871017e-12 2.3071467e-11    25.473612    25.728348    25.473612    16695.252 
      59            0     -4503.58    -13933.84   -12828.467   -16144.586   -12828.467 -6.5770734e-12 -2.1510166e-12 8.4424144e-12    25.473612    25.728348    25.473612    16695.252 
      60            0     -4503.58    -13933.84   -12828.467   -16144.586   -12828.467 -2.2064526e-12 -1.9028032e-12 -2.9135993e-12    25.473612    25.728348    25.473612    16695.252 
Loop time of 0.364785 on 1 procs for 59 steps with 1372 atoms

99.4% CPU use with 1 MPI tasks x 1 OpenMP threads

Minimization stats:
  Stopping criterion = force tolerance
  Energy initial, next-to-last, final = 
        -4503.58001128     -4503.58001174     -4503.58001173
  Force two-norm initial, final = 0.00283584 8.95498e-11
  Force max component initial, final = 0.000135786 5.3622e-12
  Final line search alpha, max atom move = 1 5.3622e-12
  Iterations, force evaluations = 59 118

MPI task timing breakdown:
Section |  min time  |  avg time  |  max time  |%varavg| %total
---------------------------------------------------------------
Pair    | 0.35954    | 0.35954    | 0.35954    |   0.0 | 98.56
Bond    | 1.2035e-05 | 1.2035e-05 | 1.2035e-05 |   0.0 |  0.00
Neigh   | 0          | 0          | 0          |   0.0 |  0.00
Comm    | 0.0013729  | 0.0013729  | 0.0013729  |   0.0 |  0.38
Output  | 0.0013239  | 0.0013239  | 0.0013239  |   0.0 |  0.36
Modify  | 0          | 0          | 0          |   0.0 |  0.00
Other   |            | 0.002538   |            |       |  0.70

Nlocal:    1372 ave 1372 max 1372 min
Histogram: 1 0 0 0 0 0 0 0 0 0
Nghost:    3258 ave 3258 max 3258 min
Histogram: 1 0 0 0 0 0 0 0 0 0
Neighs:    91924 ave 91924 max 91924 min
Histogram: 1 0 0 0 0 0 0 0 0 0

Total # of neighbors = 91924
Ave neighs/atom = 67
Ave special neighs/atom = 0
Neighbor list builds = 0
Dangerous builds = 0
OMP_NUM_THREADS environment is not set. Defaulting to 1 thread. (../comm.cpp:88)
  using 1 OpenMP thread(s) per MPI task
Reading restart file ...
  restart file = 30 Apr 2019, LAMMPS = 30 Apr 2019
  restoring atom style full from restart
  orthogonal box = (-2.32233e-14 -2.32496e-14 -2.31862e-14) to (25.4736 25.4736 25.4736)
  1 by 1 by 1 MPI processor grid
  pair style eam/fs stores no restart info
  1372 atoms
Finding 1-2 1-3 1-4 neighbors ...
  special bond factors lj:   0          0          0         
  special bond factors coul: 0          0          0         
  0 = max # of 1-2 neighbors
  0 = max # of 1-3 neighbors
  0 = max # of 1-4 neighbors
  1 = max # of special neighbors
  special bonds CPU = 0.000122652 secs
  read_restart CPU = 0.000529899 secs
Changing box ...
  triclinic box = (-2.32233e-14 -2.32496e-14 -2.31862e-14) to (25.4736 25.4736 25.4736) with tilt (0 0 0)
Changing box ...
  triclinic box = (-2.32233e-14 -2.32496e-14 -2.31862e-14) to (25.4736 25.4736 25.2189) with tilt (0 0 0)
Neighbor list info ...
  update every 1 steps, delay 0 steps, check yes
  max neighbors/atom: 2000, page size: 100000
  master list distance cutoff = 7
  ghost atom cutoff = 7
  1 neighbor lists, perpetual/occasional/extra = 1 0 0
  (1) pair eam/fs, perpetual
      attributes: half, newton on
      pair build: half/nsq/newton
      stencil: none
      bin: none
Setting up cg style minimization ...
  Unit style    : metal
  Current step  : 1
Per MPI rank memory allocation (min/avg/max) = 7.179 | 7.179 | 7.179 Mbytes
Step Temp PotEng Press Pxx Pyy Pzz Pxy Pxz Pyz Lx Ly Lz Volume 
       1            0   -4503.4949    14502.097    12454.525    12454.525     18597.24 2.0141195e-08 1.3044894e-07 1.0419093e-07    25.473612    25.473612    25.218876    16364.653 
       2            0   -4503.4949    14502.097    12454.525    12454.525     18597.24 -1.5409591e-07 1.0123769e-07 -8.9802588e-08    25.473612    25.473612    25.218876    16364.653 
       3            0   -4503.4949    14502.097    12454.525    12454.525     18597.24 -1.0653655e-07 3.3575763e-09 -1.112326e-07    25.473612    25.473612    25.218876    16364.653 
       4            0   -4503.4949    14502.097    12454.525    12454.525     18597.24 -3.6053424e-08 -8.204721e-09 -3.5769293e-08    25.473612    25.473612    25.218876    16364.653 
       5            0   -4503.4949    14502.097    12454.525    12454.525     18597.24 -2.1217373e-08 -4.1124625e-09 -1.5799496e-08    25.473612    25.473612    25.218876    16364.653 
       6            0   -4503.4949    14502.097    12454.525    12454.525     18597.24 -1.3872517e-08 1.0185839e-09 -8.9176392e-09    25.473612    25.473612    25.218876    16364.653 
       7            0   -4503.4949    14502.097    12454.525    12454.525     18597.24 -1.0034825e-08 2.0635434e-09 -5.9717052e-09    25.473612    25.473612    25.218876    16364.653 
       8            0   -4503.4949    14502.097    12454.525    12454.525     18597.24 -5.971009e-09 2.0085282e-09 -3.135685e-09    25.473612    25.473612    25.218876    16364.653 
       9            0   -4503.4949    14502.097    12454.525    12454.525     18597.24 -2.8372473e-09 1.3225747e-09 -1.0362946e-09    25.473612    25.473612    25.218876    16364.653 
      10            0   -4503.4949    14502.097    12454.525    12454.525     18597.24 -1.1827091e-09 7.6995324e-10 -3.8710228e-10    25.473612    25.473612    25.218876    16364.653 
      11            0   -4503.4949    14502.097    12454.525    12454.525     18597.24 -3.6744346e-10 3.962528e-10 -3.1866918e-10    25.473612    25.473612    25.218876    16364.653 
      12            0   -4503.4949    14502.097    12454.525    12454.525     18597.24 -9.5360071e-11 2.089455e-10 -2.8844826e-10    25.473612    25.473612    25.218876    16364.653 
      13            0   -4503.4949    14502.097    12454.525    12454.525     18597.24 -1.1589377e-11 1.1454514e-10 -1.7731038e-10    25.473612    25.473612    25.218876    16364.653 
      14            0   -4503.4949    14502.097    12454.525    12454.525     18597.24 2.7966307e-11 7.9405103e-11 -8.5478905e-11    25.473612    25.473612    25.218876    16364.653 
      15            0   -4503.4949    14502.097    12454.525    12454.525     18597.24 -8.0110693e-12 7.565874e-11 -3.593288e-11    25.473612    25.473612    25.218876    16364.653 
      16            0   -4503.4949    14502.097    12454.525    12454.525     18597.24 1.9252959e-11 3.7848265e-11 -2.2003454e-11    25.473612    25.473612    25.218876    16364.653 
      17            0   -4503.4949    14502.097    12454.525    12454.525     18597.24 -8.502919e-12 2.7297529e-11 -2.1051016e-11    25.473612    25.473612    25.218876    16364.653 
      18            0   -4503.4949    14502.097    12454.525    12454.525     18597.24 1.248578e-11 2.7099159e-11 -2.9104943e-11    25.473612    25.473612    25.218876    16364.653 
      19            0   -4503.4949    14502.097    12454.525    12454.525     18597.24 -8.8614461e-12 1.9179504e-11 -6.6275722e-12    25.473612    25.473612    25.218876    16364.653 
      20            0   -4503.4949    14502.097    12454.525    12454.525     18597.24 -2.842266e-11  2.10222e-11 9.5725854e-12    25.473612    25.473612    25.218876    16364.653 
      21            0   -4503.4949    14502.097    12454.525    12454.525     18597.24 2.2150728e-11 -3.5626407e-12 8.8821549e-13    25.473612    25.473612    25.218876    16364.653 
      22            0   -4503.4949    14502.097    12454.525    12454.525     18597.24 -2.1792201e-11 3.688278e-12 -8.7109979e-12    25.473612    25.473612    25.218876    16364.653 
      23            0   -4503.4949    14502.097    12454.525    12454.525     18597.24 1.803862e-11 -6.7194544e-12 2.1551361e-12    25.473612    25.473612    25.218876    16364.653 
      24            0   -4503.4949    14502.097    12454.525    12454.525     18597.24 5.0706711e-12 1.3494446e-11 8.5144608e-12    25.473612    25.473612    25.218876    16364.653 
      25            0   -4503.4949    14502.097    12454.525    12454.525     18597.24 -2.1212715e-12 2.9670627e-12 -9.5090428e-12    25.473612    25.473612    25.218876    16364.653 
      26            0   -4503.4949    14502.097    12454.525    12454.525     18597.24 -9.4193626e-12 -9.6180301e-12 -3.2473847e-12    25.473612    25.473612    25.218876    16364.653 
      27            0   -4503.4949    14502.097    12454.525    12454.525     18597.24 -7.5399398e-12 7.6947043e-12 -1.2136183e-11    25.473612    25.473612    25.218876    16364.653 
      28            0   -4503.4949    14502.097    12454.525    12454.525     18597.24 2.8812947e-12 -6.3502275e-12 7.1169363e-12    25.473612    25.473612    25.218876    16364.653 
      29            0   -4503.4949    14502.097    12454.525    12454.525     18597.24 -8.6401477e-12 -9.4514619e-13 -7.0959655e-12    25.473612    25.473612    25.218876    16364.653 
      30            0   -4503.4949    14502.097    12454.525    12454.525     18597.24 -2.1034386e-11 -5.9820621e-12 3.9295647e-12    25.473612    25.473612    25.218876    16364.653 
      31            0   -4503.4949    14502.097    12454.525    12454.525     18597.24 -8.7349171e-12 -1.4046163e-11 -6.0744429e-12    25.473612    25.473612    25.218876    16364.653 
      32            0   -4503.4949    14502.097    12454.525    12454.525     18597.24 -2.0881362e-11 -4.4348841e-13 9.0071652e-12    25.473612    25.473612    25.218876    16364.653 
      33            0   -4503.4949    14502.097    12454.525    12454.525     18597.24 3.2933207e-12 1.5631852e-12 -1.675161e-11    25.473612    25.473612    25.218876    16364.653 
      34            0   -4503.4949    14502.097    12454.525    12454.525     18597.24 -2.0158193e-11 -1.5793707e-11 -3.4378644e-12    25.473612    25.473612    25.218876    16364.653 
      35            0   -4503.4949    14502.097    12454.525    12454.525     18597.24 2.252488e-11 1.1102283e-12 1.5685915e-12    25.473612    25.473612    25.218876    16364.653 
      36            0   -4503.4949    14502.097    12454.525    12454.525     18597.24 1.6094999e-11 -1.31653e-11 -4.4149393e-13    25.473612    25.473612    25.218876    16364.653 
      37            0   -4503.4949    14502.097    12454.525    12454.525     18597.24 1.7851459e-11 4.6397931e-12 -5.938212e-12    25.473612    25.473612    25.218876    16364.653 
      38            0   -4503.4949    14502.097    12454.525    12454.525     18597.24 -1.8941986e-11 -1.3061784e-12 3.7358091e-12    25.473612    25.473612    25.218876    16364.653 
      39            0   -4503.4949    14502.097    12454.525    12454.525     18597.24 1.5801689e-12 -7.4982022e-12 -2.7159381e-12    25.473612    25.473612    25.218876    16364.653 
      40            0   -4503.4949    14502.097    12454.525    12454.525     18597.24 1.3567816e-11 -2.2963741e-12 5.9441226e-12    25.473612    25.473612    25.218876    16364.653 
      41            0   -4503.4949    14502.097    12454.525    12454.525     18597.24 2.2478005e-11 4.6190305e-12 -4.0795224e-12    25.473612    25.473612    25.218876    16364.653 
      42            0   -4503.4949    14502.097    12454.525    12454.525     18597.24 -2.8053773e-12 2.5625902e-11 -2.7329468e-12    25.473612    25.473612    25.218876    16364.653 
      43            0   -4503.4949    14502.097    12454.525    12454.525     18597.24 4.9685987e-12 2.315226e-12 -7.4048477e-12    25.473612    25.473612    25.218876    16364.653 
      44            0   -4503.4949    14502.097    12454.525    12454.525     18597.24 -1.4174306e-11 3.3655442e-12 8.9414935e-12    25.473612    25.473612    25.218876    16364.653 
      45            0   -4503.4949    14502.097    12454.525    12454.525     18597.24 2.3718329e-11 -3.6317646e-12 2.843661e-12    25.473612    25.473612    25.218876    16364.653 
      46            0   -4503.4949    14502.097    12454.525    12454.525     18597.24 1.2343796e-12 -8.2279519e-12 8.4054079e-12    25.473612    25.473612    25.218876    16364.653 
      47            0   -4503.4949    14502.097    12454.525    12454.525     18597.24 -1.3240878e-11 -1.1390328e-11 6.1362357e-12    25.473612    25.473612    25.218876    16364.653 
      48            0   -4503.4949    14502.097    12454.525    12454.525     18597.24 2.3543906e-11 7.8205964e-12 -3.3694616e-12    25.473612    25.473612    25.218876    16364.653 
      49            0   -4503.4949    14502.097    12454.525    12454.525     18597.24 1.3629467e-12 5.699792e-12 2.7214746e-12    25.473612    25.473612    25.218876    16364.653 
      50            0   -4503.4949    14502.097    12454.525    12454.525     18597.24 8.1892289e-12 -1.1120668e-11 1.1419953e-12    25.473612    25.473612    25.218876    16364.653 
      51            0   -4503.4949    14502.097    12454.525    12454.525     18597.24 -7.8502331e-12 -6.4348491e-12 6.8181493e-12    25.473612    25.473612    25.218876    16364.653 
      52            0   -4503.4949    14502.097    12454.525    12454.525     18597.24 -1.4568838e-11 -8.4920069e-12 2.2548328e-12    25.473612    25.473612    25.218876    16364.653 
      53            0   -4503.4949    14502.097    12454.525    12454.525     18597.24 -1.1030442e-11 6.1309672e-12 -5.780453e-12    25.473612    25.473612    25.218876    16364.653 
      54            0   -4503.4949    14502.097    12454.525    12454.525     18597.24 -6.163576e-12 9.8544865e-12 1.2212706e-11    25.473612    25.473612    25.218876    16364.653 
      55            0   -4503.4949    14502.097    12454.525    12454.525     18597.24 -2.0582618e-12 2.2651239e-12 3.7089686e-13    25.473612    25.473612    25.218876    16364.653 
Loop time of 0.332667 on 1 procs for 54 steps with 1372 atoms

99.7% CPU use with 1 MPI tasks x 1 OpenMP threads

Minimization stats:
  Stopping criterion = force tolerance
  Energy initial, next-to-last, final = 
          -4503.494897     -4503.49489748     -4503.49489748
  Force two-norm initial, final = 0.00288682 9.01683e-11
  Force max component initial, final = 0.000136951 5.10868e-12
  Final line search alpha, max atom move = 1 5.10868e-12
  Iterations, force evaluations = 54 108

MPI task timing breakdown:
Section |  min time  |  avg time  |  max time  |%varavg| %total
---------------------------------------------------------------
Pair    | 0.32785    | 0.32785    | 0.32785    |   0.0 | 98.55
Bond    | 1.0017e-05 | 1.0017e-05 | 1.0017e-05 |   0.0 |  0.00
Neigh   | 0          | 0          | 0          |   0.0 |  0.00
Comm    | 0.0012523  | 0.0012523  | 0.0012523  |   0.0 |  0.38
Output  | 0.0012332  | 0.0012332  | 0.0012332  |   0.0 |  0.37
Modify  | 0          | 0          | 0          |   0.0 |  0.00
Other   |            | 0.002321   |            |       |  0.70

Nlocal:    1372 ave 1372 max 1372 min
Histogram: 1 0 0 0 0 0 0 0 0 0
Nghost:    3258 ave 3258 max 3258 min
Histogram: 1 0 0 0 0 0 0 0 0 0
Neighs:    91924 ave 91924 max 91924 min
Histogram: 1 0 0 0 0 0 0 0 0 0

Total # of neighbors = 91924
Ave neighs/atom = 67
Ave special neighs/atom = 0
Neighbor list builds = 0
Dangerous builds = 0
OMP_NUM_THREADS environment is not set. Defaulting to 1 thread. (../comm.cpp:88)
  using 1 OpenMP thread(s) per MPI task
Reading restart file ...
  restart file = 30 Apr 2019, LAMMPS = 30 Apr 2019
  restoring atom style full from restart
  orthogonal box = (-2.32233e-14 -2.32496e-14 -2.31862e-14) to (25.4736 25.4736 25.4736)
  1 by 1 by 1 MPI processor grid
  pair style eam/fs stores no restart info
  1372 atoms
Finding 1-2 1-3 1-4 neighbors ...
  special bond factors lj:   0          0          0         
  special bond factors coul: 0          0          0         
  0 = max # of 1-2 neighbors
  0 = max # of 1-3 neighbors
  0 = max # of 1-4 neighbors
  1 = max # of special neighbors
  special bonds CPU = 0.000129952 secs
  read_restart CPU = 0.000638981 secs
Changing box ...
  triclinic box = (-2.32233e-14 -2.32496e-14 -2.31862e-14) to (25.4736 25.4736 25.4736) with tilt (0 0 0)
Changing box ...
  triclinic box = (-2.32233e-14 -2.32496e-14 -2.31862e-14) to (25.4736 25.4736 25.7283) with tilt (0 0 0)
Neighbor list info ...
  update every 1 steps, delay 0 steps, check yes
  max neighbors/atom: 2000, page size: 100000
  master list distance cutoff = 7
  ghost atom cutoff = 7
  1 neighbor lists, perpetual/occasional/extra = 1 0 0
  (1) pair eam/fs, perpetual
      attributes: half, newton on
      pair build: half/nsq/newton
      stencil: none
      bin: none
Setting up cg style minimization ...
  Unit style    : metal
  Current step  : 1
Per MPI rank memory allocation (min/avg/max) = 7.179 | 7.179 | 7.179 Mbytes
Step Temp PotEng Press Pxx Pyy Pzz Pxy Pxz Pyz Lx Ly Lz Volume 
       1            0     -4503.58    -13933.84   -12828.467   -12828.467   -16144.586 2.1531973e-07 3.9267001e-07 8.4683135e-08    25.473612    25.473612    25.728348    16695.252 
       2            0     -4503.58    -13933.84   -12828.467   -12828.467   -16144.586 -1.361004e-07 1.5784167e-07 -7.94864e-08    25.473612    25.473612    25.728348    16695.252 
       3            0     -4503.58    -13933.84   -12828.467   -12828.467   -16144.586 -1.2453295e-07 1.3429628e-08 -8.7327306e-08    25.473612    25.473612    25.728348    16695.252 
       4            0     -4503.58    -13933.84   -12828.467   -12828.467   -16144.586 -4.1503228e-08 -7.1986373e-09 -3.0548929e-08    25.473612    25.473612    25.728348    16695.252 
       5            0     -4503.58    -13933.84   -12828.467   -12828.467   -16144.586 -2.4974856e-08 -7.7995745e-09 -1.0681934e-08    25.473612    25.473612    25.728348    16695.252 
       6            0     -4503.58    -13933.84   -12828.467   -12828.467   -16144.586 -1.6926166e-08 -8.8360587e-10 -5.5607137e-09    25.473612    25.473612    25.728348    16695.252 
       7            0     -4503.58    -13933.84   -12828.467   -12828.467   -16144.586 -1.2737963e-08 1.2900331e-09 -4.4935243e-09    25.473612    25.473612    25.728348    16695.252 
       8            0     -4503.58    -13933.84   -12828.467   -12828.467   -16144.586 -8.0860655e-09 1.8183569e-09 -2.7131452e-09    25.473612    25.473612    25.728348    16695.252 
       9            0     -4503.58    -13933.84   -12828.467   -12828.467   -16144.586 -4.2876309e-09 1.2555536e-09 -7.3261793e-10    25.473612    25.473612    25.728348    16695.252 
      10            0     -4503.58    -13933.84   -12828.467   -12828.467   -16144.586 -2.1308076e-09 7.5728337e-10 2.4568244e-11    25.473612    25.473612    25.728348    16695.252 
      11            0     -4503.58    -13933.84   -12828.467   -12828.467   -16144.586 -9.3346247e-10 4.7403672e-10 4.6650464e-11    25.473612    25.473612    25.728348    16695.252 
      12            0     -4503.58    -13933.84   -12828.467   -12828.467   -16144.586 -3.7204297e-10 3.1956539e-10 -9.6549521e-11    25.473612    25.473612    25.728348    16695.252 
      13            0     -4503.58    -13933.84   -12828.467   -12828.467   -16144.586 -1.4631275e-10 2.6353142e-10 -1.499294e-10    25.473612    25.473612    25.728348    16695.252 
      14            0     -4503.58    -13933.84   -12828.467   -12828.467   -16144.586 -3.7350545e-11 2.3536427e-10 -1.3545672e-10    25.473612    25.473612    25.728348    16695.252 
      15            0     -4503.58    -13933.84   -12828.467   -12828.467   -16144.586 5.8911985e-12 1.7570981e-10 -1.2948442e-10    25.473612    25.473612    25.728348    16695.252 
      16            0     -4503.58    -13933.84   -12828.467   -12828.467   -16144.586 1.1737782e-11 1.351245e-10 -1.0371085e-10    25.473612    25.473612    25.728348    16695.252 
      17            0     -4503.58    -13933.84   -12828.467   -12828.467   -16144.586 6.2426261e-12 1.0590407e-10 -9.013933e-11    25.473612    25.473612    25.728348    16695.252 
      18            0     -4503.58    -13933.84   -12828.467   -12828.467   -16144.586 2.7261859e-11 7.3632823e-11 -5.4005359e-11    25.473612    25.473612    25.728348    16695.252 
      19            0     -4503.58    -13933.84   -12828.467   -12828.467   -16144.586 1.7155527e-11 6.9951906e-11 -4.2839478e-11    25.473612    25.473612    25.728348    16695.252 
      20            0     -4503.58    -13933.84   -12828.467   -12828.467   -16144.586 7.5947318e-12 4.7045685e-11 -2.0965358e-11    25.473612    25.473612    25.728348    16695.252 
      21            0     -4503.58    -13933.84   -12828.467   -12828.467   -16144.586 -6.6886112e-12 2.5022445e-11 -2.6838152e-11    25.473612    25.473612    25.728348    16695.252 
      22            0     -4503.58    -13933.84   -12828.467   -12828.467   -16144.586 1.4526562e-12 2.0059008e-11 -3.1737457e-11    25.473612    25.473612    25.728348    16695.252 
      23            0     -4503.58    -13933.84   -12828.467   -12828.467   -16144.586 -1.0502541e-11 -2.9998699e-13 -1.1481321e-11    25.473612    25.473612    25.728348    16695.252 
      24            0     -4503.58    -13933.84   -12828.467   -12828.467   -16144.586 -5.3997659e-12 4.323009e-12 -8.5884817e-12    25.473612    25.473612    25.728348    16695.252 
      25            0     -4503.58    -13933.84   -12828.467   -12828.467   -16144.586 1.0151114e-11 -1.2187596e-12 -3.8989705e-12    25.473612    25.473612    25.728348    16695.252 
      26            0     -4503.58    -13933.84   -12828.467   -12828.467   -16144.586 1.8090781e-12 5.5962058e-12 1.2041455e-12    25.473612    25.473612    25.728348    16695.252 
      27            0     -4503.58    -13933.84   -12828.467   -12828.467   -16144.586 1.1732954e-11 -1.1466761e-11 2.7320884e-12    25.473612    25.473612    25.728348    16695.252 
      28            0     -4503.58    -13933.84   -12828.467   -12828.467   -16144.586 -8.9281923e-12 6.2469545e-12 -1.9121338e-12    25.473612    25.473612    25.728348    16695.252 
      29            0     -4503.58    -13933.84   -12828.467   -12828.467   -16144.586 -3.0023671e-12 2.8140844e-12 1.0461044e-11    25.473612    25.473612    25.728348    16695.252 
      30            0     -4503.58    -13933.84   -12828.467   -12828.467   -16144.586 -1.6053965e-11 5.027529e-12 -3.0477174e-14    25.473612    25.473612    25.728348    16695.252 
      31            0     -4503.58    -13933.84   -12828.467   -12828.467   -16144.586 -1.2539689e-11 -7.7548802e-12 -2.0649864e-12    25.473612    25.473612    25.728348    16695.252 
      32            0     -4503.58    -13933.84   -12828.467   -12828.467   -16144.586 1.9362812e-11 -2.1054193e-11 8.2331392e-12    25.473612    25.473612    25.728348    16695.252 
      33            0     -4503.58    -13933.84   -12828.467   -12828.467   -16144.586 -1.1908751e-11 6.1755369e-12 1.2838432e-12    25.473612    25.473612    25.728348    16695.252 
      34            0     -4503.58    -13933.84   -12828.467   -12828.467   -16144.586 1.2870807e-11 -2.7666392e-12 9.0569718e-12    25.473612    25.473612    25.728348    16695.252 
      35            0     -4503.58    -13933.84   -12828.467   -12828.467   -16144.586 4.5252755e-12 -1.3167132e-11 -2.1431847e-12    25.473612    25.473612    25.728348    16695.252 
      36            0     -4503.58    -13933.84   -12828.467   -12828.467   -16144.586 1.4973047e-11 8.4653933e-12 -4.1474799e-12    25.473612    25.473612    25.728348    16695.252 
[...]
      38            0   -4503.9996    188.25298    170.04856    315.87396     78.83644    8454.8137 2.1540315e-12 -7.6998473e-12    25.473612    25.473612    25.473612    16529.952 
      39            0   -4503.9996    188.25298    170.04856    315.87396     78.83644    8454.8137 6.9710518e-13 -4.2089551e-12    25.473612    25.473612    25.473612    16529.952 
      40            0   -4503.9996    188.25298    170.04856    315.87396     78.83644    8454.8137 5.2039087e-13 2.2924597e-12    25.473612    25.473612    25.473612    16529.952 
      41            0   -4503.9996    188.25298    170.04856    315.87396     78.83644    8454.8137 -3.1705171e-12 -9.0675217e-12    25.473612    25.473612    25.473612    16529.952 
      42            0   -4503.9996    188.25298    170.04856    315.87396     78.83644    8454.8137 3.5625337e-12 4.4017805e-12    25.473612    25.473612    25.473612    16529.952 
      43            0   -4503.9996    188.25298    170.04856    315.87396     78.83644    8454.8137 -5.4602369e-12 -4.3582806e-12    25.473612    25.473612    25.473612    16529.952 
      44            0   -4503.9996    188.25298    170.04856    315.87396     78.83644    8454.8137 -8.3265902e-12 -3.4513961e-12    25.473612    25.473612    25.473612    16529.952 
      45            0   -4503.9996    188.25298    170.04856    315.87396     78.83644    8454.8137 8.5795556e-12 4.067392e-12    25.473612    25.473612    25.473612    16529.952 
      46            0   -4503.9996    188.25298    170.04856    315.87396     78.83644    8454.8137 7.0603338e-12 2.0396992e-11    25.473612    25.473612    25.473612    16529.952 
      47            0   -4503.9996    188.25298    170.04856    315.87396     78.83644    8454.8137 -1.1782944e-11 3.0267872e-12    25.473612    25.473612    25.473612    16529.952 
      48            0   -4503.9996    188.25298    170.04856    315.87396     78.83644    8454.8137 -2.1910221e-12 -9.9740641e-12    25.473612    25.473612    25.473612    16529.952 
      49            0   -4503.9996    188.25298    170.04856    315.87396     78.83644    8454.8137 1.1207319e-12 2.0032367e-12    25.473612    25.473612    25.473612    16529.952 
      50            0   -4503.9996    188.25298    170.04856    315.87396     78.83644    8454.8137 1.5166157e-12 -9.6564307e-13    25.473612    25.473612    25.473612    16529.952 
      51            0   -4503.9996    188.25298    170.04856    315.87396     78.83644    8454.8137 5.6225753e-13 -9.5191334e-12    25.473612    25.473612    25.473612    16529.952 
      52            0   -4503.9996    188.25298    170.04856    315.87396     78.83644    8454.8137 -5.2436736e-12 -4.8396377e-12    25.473612    25.473612    25.473612    16529.952 
      53            0   -4503.9996    188.25298    170.04856    315.87396     78.83644    8454.8137 -3.276697e-12 -2.1985519e-12    25.473612    25.473612    25.473612    16529.952 
      54            0   -4503.9996    188.25298    170.04856    315.87396     78.83644    8454.8137 -3.0967881e-12 -8.7028406e-13    25.473612    25.473612    25.473612    16529.952 
      55            0   -4503.9996    188.25298    170.04856    315.87396     78.83644    8454.8137 -8.5599674e-13 4.292367e-12    25.473612    25.473612    25.473612    16529.952 
      56            0   -4503.9996    188.25298    170.04856    315.87396     78.83644    8454.8137 -1.0550568e-11 -8.4484117e-12    25.473612    25.473612    25.473612    16529.952 
      57            0   -4503.9996    188.25298    170.04856    315.87396     78.83644    8454.8137 -8.7061645e-12 4.6055559e-12    25.473612    25.473612    25.473612    16529.952 
Loop time of 0.346463 on 1 procs for 56 steps with 1372 atoms

99.7% CPU use with 1 MPI tasks x 1 OpenMP threads

Minimization stats:
  Stopping criterion = force tolerance
  Energy initial, next-to-last, final = 
        -4503.99957566     -4503.99957612     -4503.99957612
  Force two-norm initial, final = 0.00286317 9.44319e-11
  Force max component initial, final = 0.000137263 5.47125e-12
  Final line search alpha, max atom move = 1 5.47125e-12
  Iterations, force evaluations = 56 112

MPI task timing breakdown:
Section |  min time  |  avg time  |  max time  |%varavg| %total
---------------------------------------------------------------
Pair    | 0.34137    | 0.34137    | 0.34137    |   0.0 | 98.53
Bond    | 1.0326e-05 | 1.0326e-05 | 1.0326e-05 |   0.0 |  0.00
Neigh   | 0          | 0          | 0          |   0.0 |  0.00
Comm    | 0.0012863  | 0.0012863  | 0.0012863  |   0.0 |  0.37
Output  | 0.0013716  | 0.0013716  | 0.0013716  |   0.0 |  0.40
Modify  | 0          | 0          | 0          |   0.0 |  0.00
Other   |            | 0.002423   |            |       |  0.70

Nlocal:    1372 ave 1372 max 1372 min
Histogram: 1 0 0 0 0 0 0 0 0 0
Nghost:    3258 ave 3258 max 3258 min
Histogram: 1 0 0 0 0 0 0 0 0 0
Neighs:    91924 ave 91924 max 91924 min
Histogram: 1 0 0 0 0 0 0 0 0 0

Total # of neighbors = 91924
Ave neighs/atom = 67
Ave special neighs/atom = 0
Neighbor list builds = 0
Dangerous builds = 0
OMP_NUM_THREADS environment is not set. Defaulting to 1 thread. (../comm.cpp:88)
  using 1 OpenMP thread(s) per MPI task
Reading restart file ...
  restart file = 30 Apr 2019, LAMMPS = 30 Apr 2019
  restoring atom style full from restart
  orthogonal box = (-2.32233e-14 -2.32496e-14 -2.31862e-14) to (25.4736 25.4736 25.4736)
  1 by 1 by 1 MPI processor grid
  pair style eam/fs stores no restart info
  1372 atoms
Finding 1-2 1-3 1-4 neighbors ...
  special bond factors lj:   0          0          0         
  special bond factors coul: 0          0          0         
  0 = max # of 1-2 neighbors
  0 = max # of 1-3 neighbors
  0 = max # of 1-4 neighbors
  1 = max # of special neighbors
  special bonds CPU = 0.000121727 secs
  read_restart CPU = 0.000689552 secs
Changing box ...
  triclinic box = (-2.32233e-14 -2.32496e-14 -2.31862e-14) to (25.4736 25.4736 25.4736) with tilt (0 0 0)
Changing box ...
  triclinic box = (-2.32233e-14 -2.32496e-14 -2.31862e-14) to (25.4736 25.4736 25.4736) with tilt (0.254736 0 0)
Neighbor list info ...
  update every 1 steps, delay 0 steps, check yes
  max neighbors/atom: 2000, page size: 100000
  master list distance cutoff = 7
  ghost atom cutoff = 7
  1 neighbor lists, perpetual/occasional/extra = 1 0 0
  (1) pair eam/fs, perpetual
      attributes: half, newton on
      pair build: half/nsq/newton
      stencil: none
      bin: none
Setting up cg style minimization ...
  Unit style    : metal
  Current step  : 1
Per MPI rank memory allocation (min/avg/max) = 7.179 | 7.179 | 7.179 Mbytes
Step Temp PotEng Press Pxx Pyy Pzz Pxy Pxz Pyz Lx Ly Lz Volume 
       1            0   -4503.9996    188.25302     170.0486    315.87399    78.836473   -8454.8137 2.917041e-07 2.4685167e-07    25.473612    25.473612    25.473612    16529.952 
       2            0   -4503.9996      188.253    170.04857    315.87397    78.836451   -8454.8137 1.1485516e-07 -9.2577245e-08    25.473612    25.473612    25.473612    16529.952 
       3            0   -4503.9996    188.25299    170.04856    315.87396    78.836444   -8454.8137 9.1821321e-09 -1.0058506e-07    25.473612    25.473612    25.473612    16529.952 
       4            0   -4503.9996    188.25299    170.04856    315.87396    78.836442   -8454.8137 -4.0121124e-09 -3.593025e-08    25.473612    25.473612    25.473612    16529.952 
       5            0   -4503.9996    188.25299    170.04856    315.87396    78.836441   -8454.8137 -3.9849389e-09 -1.4482639e-08    25.473612    25.473612    25.473612    16529.952 
       6            0   -4503.9996    188.25299    170.04856    315.87396     78.83644   -8454.8137 9.844013e-10 -7.7232121e-09    25.473612    25.473612    25.473612    16529.952 
       7            0   -4503.9996    188.25299    170.04856    315.87396     78.83644   -8454.8137 2.1960004e-09 -5.1366949e-09    25.473612    25.473612    25.473612    16529.952 
       8            0   -4503.9996    188.25298    170.04856    315.87396     78.83644   -8454.8137 2.2047989e-09 -2.6291763e-09    25.473612    25.473612    25.473612    16529.952 
       9            0   -4503.9996    188.25298    170.04856    315.87396     78.83644   -8454.8137 1.4656655e-09 -6.6196794e-10    25.473612    25.473612    25.473612    16529.952 
      10            0   -4503.9996    188.25298    170.04856    315.87396     78.83644   -8454.8137 8.8209161e-10 -7.4304497e-11    25.473612    25.473612    25.473612    16529.952 
      11            0   -4503.9996    188.25298    170.04856    315.87396     78.83644   -8454.8137 4.5824241e-10 -1.3398101e-10    25.473612    25.473612    25.473612    16529.952 
      12            0   -4503.9996    188.25298    170.04856    315.87396     78.83644   -8454.8137 2.5549746e-10 -1.9586233e-10    25.473612    25.473612    25.473612    16529.952 
      13            0   -4503.9996    188.25298    170.04856    315.87396     78.83644   -8454.8137 1.7126156e-10 -1.7114855e-10    25.473612    25.473612    25.473612    16529.952 
      14            0   -4503.9996    188.25298    170.04856    315.87396     78.83644   -8454.8137 1.3129672e-10 -1.2841461e-10    25.473612    25.473612    25.473612    16529.952 
      15            0   -4503.9996    188.25298    170.04856    315.87396     78.83644   -8454.8137 8.918457e-11 -7.4278768e-11    25.473612    25.473612    25.473612    16529.952 
      16            0   -4503.9996    188.25298    170.04856    315.87396     78.83644   -8454.8137 5.1632694e-11 -5.9735321e-11    25.473612    25.473612    25.473612    16529.952 
      17            0   -4503.9996    188.25298    170.04856    315.87396     78.83644   -8454.8137 3.3926794e-11 -3.2825573e-11    25.473612    25.473612    25.473612    16529.952 
      18            0   -4503.9996    188.25298    170.04856    315.87396     78.83644   -8454.8137 3.8217203e-11 -3.5181287e-11    25.473612    25.473612    25.473612    16529.952 
      19            0   -4503.9996    188.25298    170.04856    315.87396     78.83644   -8454.8137 3.6646278e-11 -2.6944504e-11    25.473612    25.473612    25.473612    16529.952 
      20            0   -4503.9996    188.25298    170.04856    315.87396     78.83644   -8454.8137 1.642098e-11 -2.1272156e-11    25.473612    25.473612    25.473612    16529.952 
      21            0   -4503.9996    188.25298    170.04856    315.87396     78.83644   -8454.8137 1.8451597e-11 -1.069261e-11    25.473612    25.473612    25.473612    16529.952 
      22            0   -4503.9996    188.25298    170.04856    315.87396     78.83644   -8454.8137 1.3146133e-11 -2.3454248e-12    25.473612    25.473612    25.473612    16529.952 
      23            0   -4503.9996    188.25298    170.04856    315.87396     78.83644   -8454.8137 -3.2800598e-12 2.5564709e-12    25.473612    25.473612    25.473612    16529.952 
      24            0   -4503.9996    188.25298    170.04856    315.87396     78.83644   -8454.8137 -1.2469036e-11 -5.797014e-12    25.473612    25.473612    25.473612    16529.952 
      25            0   -4503.9996    188.25298    170.04856    315.87396     78.83644   -8454.8137 1.0452038e-11 -1.2327549e-12    25.473612    25.473612    25.473612    16529.952 
      26            0   -4503.9996    188.25298    170.04856    315.87396     78.83644   -8454.8137 1.9942992e-12 -1.4135349e-12    25.473612    25.473612    25.473612    16529.952 
      27            0   -4503.9996    188.25298    170.04856    315.87396     78.83644   -8454.8137 -5.9454026e-13 2.3323823e-12    25.473612    25.473612    25.473612    16529.952 
      28            0   -4503.9996    188.25298    170.04856    315.87396     78.83644   -8454.8137 -5.1080693e-12 7.4825074e-13    25.473612    25.473612    25.473612    16529.952 
      29            0   -4503.9996    188.25298    170.04856    315.87396     78.83644   -8454.8137 6.4412452e-12 4.9696916e-12    25.473612    25.473612    25.473612    16529.952 
      30            0   -4503.9996    188.25298    170.04856    315.87396     78.83644   -8454.8137 1.1650366e-12 -1.2258949e-12    25.473612    25.473612    25.473612    16529.952 
      31            0   -4503.9996    188.25298    170.04856    315.87396     78.83644   -8454.8137 -1.1517536e-12 -1.2460989e-12    25.473612    25.473612    25.473612    16529.952 
      32            0   -4503.9996    188.25298    170.04856    315.87396     78.83644   -8454.8137 8.2958207e-12 1.3188987e-12    25.473612    25.473612    25.473612    16529.952 
      33            0   -4503.9996    188.25298    170.04856    315.87396     78.83644   -8454.8137  3.39389e-12 -2.7851004e-12    25.473612    25.473612    25.473612    16529.952 
      34            0   -4503.9996    188.25298    170.04856    315.87396     78.83644   -8454.8137 -5.695884e-12 4.6660241e-12    25.473612    25.473612    25.473612    16529.952 
      35            0   -4503.9996    188.25298    170.04856    315.87396     78.83644   -8454.8137 7.299764e-12 -8.9210828e-12    25.473612    25.473612    25.473612    16529.952 
      36            0   -4503.9996    188.25298    170.04856    315.87396     78.83644   -8454.8137 5.5923103e-13 -5.3767232e-12    25.473612    25.473612    25.473612    16529.952 
      37            0   -4503.9996    188.25298    170.04856    315.87396     78.83644   -8454.8137 -2.7848898e-12 1.0178313e-11    25.473612    25.473612    25.473612    16529.952 
      38            0   -4503.9996    188.25298    170.04856    315.87396     78.83644   -8454.8137 2.2614724e-13 8.7924305e-13    25.473612    25.473612    25.473612    16529.952 
      39            0   -4503.9996    188.25298    170.04856    315.87396     78.83644   -8454.8137 9.0013329e-12 4.7504888e-13    25.473612    25.473612    25.473612    16529.952 
      40            0   -4503.9996    188.25298    170.04856    315.87396     78.83644   -8454.8137 -4.53875e-12 2.1109466e-12    25.473612    25.473612    25.473612    16529.952 
      41            0   -4503.9996    188.25298    170.04856    315.87396     78.83644   -8454.8137 2.1271292e-12 -4.7449818e-12    25.473612    25.473612    25.473612    16529.952 
      42            0   -4503.9996    188.25298    170.04856    315.87396     78.83644   -8454.8137 8.9181039e-13 -7.9709718e-12    25.473612    25.473612    25.473612    16529.952 
      43            0   -4503.9996    188.25298    170.04856    315.87396     78.83644   -8454.8137 -3.1983441e-12 2.7463206e-12    25.473612    25.473612    25.473612    16529.952 
      44            0   -4503.9996    188.25298    170.04856    315.87396     78.83644   -8454.8137 2.6169187e-12 -8.5766979e-13    25.473612    25.473612    25.473612    16529.952 
      45            0   -4503.9996    188.25298    170.04856    315.87396     78.83644   -8454.8137 9.4057077e-13 3.1013623e-12    25.473612    25.473612    25.473612    16529.952 
      46            0   -4503.9996    188.25298    170.04856    315.87396     78.83644   -8454.8137 4.6440051e-13 4.6380238e-12    25.473612    25.473612    25.473612    16529.952 
      47            0   -4503.9996    188.25298    170.04856    315.87396     78.83644   -8454.8137 1.525443e-11 1.2757423e-11    25.473612    25.473612    25.473612    16529.952 
      48            0   -4503.9996    188.25298    170.04856    315.87396     78.83644   -8454.8137 1.0326438e-11 -8.2858129e-12    25.473612    25.473612    25.473612    16529.952 
      49            0   -4503.9996    188.25298    170.04856    315.87396     78.83644   -8454.8137 2.2429771e-13 -1.2486724e-11    25.473612    25.473612    25.473612    16529.952 
      50            0   -4503.9996    188.25298    170.04856    315.87396     78.83644   -8454.8137 -2.5146901e-12 7.0134272e-12    25.473612    25.473612    25.473612    16529.952 
      51            0   -4503.9996    188.25298    170.04856    315.87396     78.83644   -8454.8137 6.8701683e-12 -7.1813903e-13    25.473612    25.473612    25.473612    16529.952 
      52            0   -4503.9996    188.25298    170.04856    315.87396     78.83644   -8454.8137 -1.413042e-12 1.1346986e-13    25.473612    25.473612    25.473612    16529.952 
      53            0   -4503.9996    188.25298    170.04856    315.87396     78.83644   -8454.8137 1.5804077e-11 6.1922871e-12    25.473612    25.473612    25.473612    16529.952 
      54            0   -4503.9996    188.25298    170.04856    315.87396     78.83644   -8454.8137 -5.8394749e-12 -2.5133279e-13    25.473612    25.473612    25.473612    16529.952 
      55            0   -4503.9996    188.25298    170.04856    315.87396     78.83644   -8454.8137 -2.5046017e-12 4.6902566e-12    25.473612    25.473612    25.473612    16529.952 
      56            0   -4503.9996    188.25298    170.04856    315.87396     78.83644   -8454.8137 1.0941155e-11 2.8519972e-12    25.473612    25.473612    25.473612    16529.952 
      57            0   -4503.9996    188.25298    170.04856    315.87396     78.83644   -8454.8137 6.2009742e-12 -5.3618734e-12    25.473612    25.473612    25.473612    16529.952 
Loop time of 0.346296 on 1 procs for 56 steps with 1372 atoms

99.7% CPU use with 1 MPI tasks x 1 OpenMP threads

Minimization stats:
  Stopping criterion = force tolerance
  Energy initial, next-to-last, final = 
        -4503.99957566     -4503.99957612     -4503.99957612
  Force two-norm initial, final = 0.00286245 8.78007e-11
  Force max component initial, final = 0.000135381 5.46749e-12
  Final line search alpha, max atom move = 1 5.46749e-12
  Iterations, force evaluations = 56 112

MPI task timing breakdown:
Section |  min time  |  avg time  |  max time  |%varavg| %total
---------------------------------------------------------------
Pair    | 0.3412     | 0.3412     | 0.3412     |   0.0 | 98.53
Bond    | 9.277e-06  | 9.277e-06  | 9.277e-06  |   0.0 |  0.00
Neigh   | 0          | 0          | 0          |   0.0 |  0.00
Comm    | 0.0012867  | 0.0012867  | 0.0012867  |   0.0 |  0.37
Output  | 0.001364   | 0.001364   | 0.001364   |   0.0 |  0.39
Modify  | 0          | 0          | 0          |   0.0 |  0.00
Other   |            | 0.002437   |            |       |  0.70

Nlocal:    1372 ave 1372 max 1372 min
Histogram: 1 0 0 0 0 0 0 0 0 0
Nghost:    3258 ave 3258 max 3258 min
Histogram: 1 0 0 0 0 0 0 0 0 0
Neighs:    91924 ave 91924 max 91924 min
Histogram: 1 0 0 0 0 0 0 0 0 0

Total # of neighbors = 91924
Ave neighs/atom = 67
Ave special neighs/atom = 0
Neighbor list builds = 0
Dangerous builds = 0
=========================================
Components of the Elastic Constant Tensor
=========================================
Elastic Constant C11all=173.70913111533
Elastic Constant C22all = 173.709131115329 GPa
Elastic Constant C33all = 173.709131115329 GPa
Elastic Constant C12all=126.414957957689
Elastic Constant C13all = 126.414957957689 GPa
Elastic Constant C23all = 126.414957957689 GPa
Elastic Constant C44all=84.5481366939194
Elastic Constant C55all = 84.5481366939194 GPa
Elastic Constant C66all = 84.5481366939195 GPa
Elastic Constant C14all = -4.55231085920723e-14 GPa
Elastic Constant C15all = -3.17043236689575e-14 GPa
Elastic Constant C16all = -5.33104684008725e-14 GPa
Elastic Constant C24all = 8.2998795205902e-15 GPa
Elastic Constant C25all = -2.11382414277544e-14 GPa
Elastic Constant C26all = 5.4864478245979e-14 GPa
Elastic Constant C34all = 1.49583926426735e-14 GPa
Elastic Constant C35all = -2.35576272542191e-14 GPa
Elastic Constant C36all = -5.42006340389994e-14 GPa
Elastic Constant C45all = -1.0138634461594e-14 GPa
Elastic Constant C46all = 1.10357386657163e-14 GPa
Elastic Constant C56all = -1.11549229623782e-13 GPa
=========================================
Average properties for a cubic crystal
=========================================
Bulk=142.179682343569
Shear 1=84.5481366939194
Shear 2=23.64708657882
Poisson=0.421208968424168
Total wall time: 0:00:04
