# ---------- Initialize Simulation ---------------------
units metal
dimension 3
boundary p p p
atom_style full
variable stable_structure file stable.txt
variable lattice_guess file lattice_guess.txt
lattice ${stable_structure} ${lattice_guess}
lattice fcc ${lattice_guess}
lattice fcc 3.6
Lattice spacing in x,y,z = 3.6 3.6 3.6
region box block 0 1 0 1 0 1 units lattice
create_box 1 box
Created orthogonal box = (0 0 0) to (3.6 3.6 3.6)
  1 by 1 by 1 MPI processor grid
create_atoms 1 box
Created 4 atoms
  create_atoms CPU = 0.00119345 secs
variable unit_cells equal "7"
replicate ${unit_cells} ${unit_cells} ${unit_cells}
replicate 7 ${unit_cells} ${unit_cells}
replicate 7 7 ${unit_cells}
replicate 7 7 7
  orthogonal box = (0 0 0) to (25.2 25.2 25.2)
  1 by 1 by 1 MPI processor grid
  1372 atoms
  0 = max # of 1-2 neighbors
  0 = max # of 1-3 neighbors
  0 = max # of 1-4 neighbors
  1 = max # of special neighbors
  special bonds CPU = 0.000157448 secs
  replicate CPU = 0.000609522 secs

# ---------- Define Interatomic Potential ---------------------
variable pairstyle file pairsty.txt
pair_style ${pairstyle}
pair_style eam/fs
variable potential file potential.txt
variable type file type.txt
pair_coeff * * ${potential} ${type}
pair_coeff * * Cu1.eam.fs ${type}
pair_coeff * * Cu1.eam.fs Cu
neighbor 2.0 bin
neigh_modify delay 10 check yes

# ---------- Define Thermo State ---------------------
variable tempset     file lat_temp.txt # K
variable presset     equal 1.0 # bars

# ---------- Run Minimization ---------------------
min_style cg
minimize 1e-25 1e-25 5000 1000
WARNING: Using 'neigh_modify every 1 delay 0 check yes' setting during minimization (../min.cpp:168)
Neighbor list info ...
  update every 1 steps, delay 0 steps, check yes
  max neighbors/atom: 2000, page size: 100000
  master list distance cutoff = 8
  ghost atom cutoff = 8
  binsize = 4, bins = 7 7 7
  1 neighbor lists, perpetual/occasional/extra = 1 0 0
  (1) pair eam/fs, perpetual
      attributes: half, newton on
      pair build: half/bin/newton
      stencil: half/bin/3d/newton
      bin: standard
Per MPI rank memory allocation (min/avg/max) = 7.722 | 7.722 | 7.722 Mbytes
Step Temp E_pair E_mol TotEng Press 
       0            0   -4496.8886            0   -4496.8886    48195.375 
       1            0   -4496.8886            0   -4496.8886    48195.375 
Loop time of 0.0093021 on 1 procs for 1 steps with 1372 atoms

95.4% CPU use with 1 MPI tasks x 1 OpenMP threads

Minimization stats:
  Stopping criterion = energy tolerance
  Energy initial, next-to-last, final = 
        -4496.88856881     -4496.88856881     -4496.88856881
  Force two-norm initial, final = 3.26473e-13 3.08016e-13
  Force max component initial, final = 1.50019e-14 1.47833e-14
  Final line search alpha, max atom move = 1 1.47833e-14
  Iterations, force evaluations = 1 2

MPI task timing breakdown:
Section |  min time  |  avg time  |  max time  |%varavg| %total
---------------------------------------------------------------
Pair    | 0.0091817  | 0.0091817  | 0.0091817  |   0.0 | 98.71
Bond    | 2.95e-07   | 2.95e-07   | 2.95e-07   |   0.0 |  0.00
Neigh   | 0          | 0          | 0          |   0.0 |  0.00
Comm    | 4.7666e-05 | 4.7666e-05 | 4.7666e-05 |   0.0 |  0.51
Output  | 0          | 0          | 0          |   0.0 |  0.00
Modify  | 0          | 0          | 0          |   0.0 |  0.00
Other   |            | 7.24e-05   |            |       |  0.78

Nlocal:    1372 ave 1372 max 1372 min
Histogram: 1 0 0 0 0 0 0 0 0 0
Nghost:    4712 ave 4712 max 4712 min
Histogram: 1 0 0 0 0 0 0 0 0 0
Neighs:    120736 ave 120736 max 120736 min
Histogram: 1 0 0 0 0 0 0 0 0 0

Total # of neighbors = 120736
Ave neighs/atom = 88
Ave special neighs/atom = 0
Neighbor list builds = 0
Dangerous builds = 0
velocity all create ${tempset} 87979 dist gaussian
velocity all create 1.0 87979 dist gaussian
variable timestep1     equal 0.001

timestep ${timestep1}
timestep 0.001
thermo 100
thermo_style custom step pe lx ly lz ke etotal temp press density
# ---------- Run Dynamics ---------------------
fix 1 all nve
run 10000
Per MPI rank memory allocation (min/avg/max) = 6.597 | 6.597 | 6.597 Mbytes
Step PotEng Lx Ly Lz KinEng TotEng Temp Press Density 
       1   -4496.8886         25.2         25.2         25.2   0.17721566   -4496.7114            1    48207.203    9.0466912 
     100   -4496.8042         25.2         25.2         25.2  0.092901809   -4496.7113   0.52423025    48224.441    9.0466912 
     200   -4496.7975         25.2         25.2         25.2  0.086203324   -4496.7113   0.48643176     48224.38    9.0466912 
     300   -4496.8015         25.2         25.2         25.2  0.090144748   -4496.7113   0.50867259     48223.46    9.0466912 
     400   -4496.7906         25.2         25.2         25.2  0.079263411   -4496.7113   0.44727092     48224.86    9.0466912 
     500   -4496.8055         25.2         25.2         25.2  0.094130742   -4496.7113   0.53116493    48222.964    9.0466912 
     600    -4496.792         25.2         25.2         25.2  0.080634108   -4496.7113   0.45500555    48225.928    9.0466912 
     700    -4496.805         25.2         25.2         25.2  0.093690603   -4496.7113   0.52868129    48222.036    9.0466912 
     800   -4496.8068         25.2         25.2         25.2  0.095444553   -4496.7113   0.53857855    48222.624    9.0466912 
     900   -4496.8029         25.2         25.2         25.2  0.091597604   -4496.7113   0.51687083    48223.157    9.0466912 
    1000   -4496.7991         25.2         25.2         25.2  0.087763179   -4496.7113   0.49523377    48225.844    9.0466912 
    1100   -4496.8118         25.2         25.2         25.2   0.10044547   -4496.7113   0.56679792    48223.076    9.0466912 
    1200   -4496.7979         25.2         25.2         25.2  0.086540019   -4496.7113   0.48833167    48223.958    9.0466912 
    1300   -4496.7918         25.2         25.2         25.2  0.080505008   -4496.7113   0.45427706    48224.883    9.0466912 
    1400   -4496.8054         25.2         25.2         25.2  0.094052643   -4496.7113   0.53072422     48223.28    9.0466912 
    1500   -4496.7992         25.2         25.2         25.2  0.087873792   -4496.7113   0.49585794    48222.272    9.0466912 
    1600   -4496.8085         25.2         25.2         25.2  0.097167666   -4496.7113   0.54830181    48222.797    9.0466912 
    1700   -4496.8043         25.2         25.2         25.2  0.092985833   -4496.7113   0.52470439    48221.891    9.0466912 
    1800   -4496.7991         25.2         25.2         25.2  0.087737384   -4496.7113   0.49508821    48224.836    9.0466912 
    1900   -4496.8093         25.2         25.2         25.2  0.098007487   -4496.7113   0.55304079    48224.254    9.0466912 
    2000   -4496.7941         25.2         25.2         25.2  0.082782135   -4496.7113   0.46712653    48225.481    9.0466912 
    2100   -4496.8021         25.2         25.2         25.2  0.090722537   -4496.7113   0.51193296    48224.053    9.0466912 
    2200   -4496.7983         25.2         25.2         25.2  0.086933397   -4496.7113   0.49055144    48222.456    9.0466912 
    2300   -4496.7938         25.2         25.2         25.2  0.082454626   -4496.7113   0.46527845    48225.055    9.0466912 
    2400   -4496.7999         25.2         25.2         25.2  0.088544811   -4496.7113    0.4996444    48223.756    9.0466912 
    2500   -4496.8072         25.2         25.2         25.2  0.095820265   -4496.7113   0.54069864    48223.813    9.0466912 
    2600   -4496.8085         25.2         25.2         25.2  0.097177982   -4496.7113   0.54836002     48222.84    9.0466912 
    2700   -4496.8036         25.2         25.2         25.2  0.092274805   -4496.7113   0.52069216    48223.638    9.0466912 
    2800   -4496.8048         25.2         25.2         25.2  0.093485324   -4496.7113   0.52752293    48223.799    9.0466912 
    2900   -4496.7927         25.2         25.2         25.2  0.081394012   -4496.7113   0.45929356    48223.368    9.0466912 
    3000    -4496.799         25.2         25.2         25.2  0.087700138   -4496.7113   0.49487804    48223.476    9.0466912 
    3100    -4496.794         25.2         25.2         25.2  0.082642266   -4496.7113   0.46633727    48223.924    9.0466912 
    3200   -4496.8015         25.2         25.2         25.2  0.090161067   -4496.7113   0.50876468    48223.349    9.0466912 
    3300   -4496.8104         25.2         25.2         25.2  0.099064095   -4496.7113   0.55900306    48221.986    9.0466912 
    3400   -4496.8015         25.2         25.2         25.2  0.090173074   -4496.7113   0.50883243    48224.048    9.0466912 
    3500   -4496.8021         25.2         25.2         25.2  0.090783759   -4496.7113   0.51227843    48224.729    9.0466912 
    3600   -4496.7986         25.2         25.2         25.2  0.087230257   -4496.7113   0.49222658     48222.67    9.0466912 
    3700   -4496.8008         25.2         25.2         25.2  0.089446652   -4496.7113   0.50473334    48224.758    9.0466912 
    3800   -4496.8042         25.2         25.2         25.2  0.092880483   -4496.7113   0.52410991    48221.153    9.0466912 
    3900   -4496.8017         25.2         25.2         25.2  0.090375346   -4496.7113   0.50997382    48222.718    9.0466912 
    4000   -4496.8029         25.2         25.2         25.2  0.091526637   -4496.7113   0.51647037    48222.971    9.0466912 
    4100   -4496.8062         25.2         25.2         25.2  0.094840743   -4496.7113   0.53517135    48221.836    9.0466912 
    4200   -4496.8008         25.2         25.2         25.2  0.089454735   -4496.7113   0.50477896    48224.444    9.0466912 
    4300   -4496.8006         25.2         25.2         25.2  0.089283087   -4496.7113   0.50381037    48224.066    9.0466912 
    4400   -4496.8034         25.2         25.2         25.2  0.092118001   -4496.7113   0.51980734    48222.737    9.0466912 
    4500    -4496.806         25.2         25.2         25.2  0.094629002   -4496.7113   0.53397653    48223.534    9.0466912 
    4600   -4496.7979         25.2         25.2         25.2  0.086585837   -4496.7113   0.48859022    48223.828    9.0466912 
    4700    -4496.805         25.2         25.2         25.2   0.09371955   -4496.7113   0.52884464    48221.667    9.0466912 
    4800   -4496.8012         25.2         25.2         25.2  0.089831267   -4496.7113   0.50690366     48224.26    9.0466912 
    4900   -4496.7988         25.2         25.2         25.2   0.08745214   -4496.7113   0.49347863    48224.619    9.0466912 
    5000   -4496.7976         25.2         25.2         25.2  0.086304263   -4496.7113   0.48700134    48225.941    9.0466912 
    5100   -4496.8025         25.2         25.2         25.2  0.091197486   -4496.7113   0.51461302    48225.578    9.0466912 
    5200    -4496.809         25.2         25.2         25.2  0.097651265   -4496.7113   0.55103068    48221.648    9.0466912 
    5300   -4496.8111         25.2         25.2         25.2  0.099719484   -4496.7113   0.56270132    48221.214    9.0466912 
    5400   -4496.7993         25.2         25.2         25.2  0.087936922   -4496.7113   0.49621418    48223.756    9.0466912 
    5500   -4496.7956         25.2         25.2         25.2  0.084275199   -4496.7113   0.47555165    48222.858    9.0466912 
    5600   -4496.8018         25.2         25.2         25.2  0.090491837   -4496.7113   0.51063116    48223.062    9.0466912 
    5700   -4496.7935         25.2         25.2         25.2  0.082168409   -4496.7113   0.46366337    48223.761    9.0466912 
    5800   -4496.7919         25.2         25.2         25.2   0.08061968   -4496.7113   0.45492413    48226.773    9.0466912 
    5900   -4496.8022         25.2         25.2         25.2  0.090889662   -4496.7113   0.51287602    48224.507    9.0466912 
    6000   -4496.7949         25.2         25.2         25.2  0.083595483   -4496.7113   0.47171612    48224.056    9.0466912 
    6100   -4496.7968         25.2         25.2         25.2  0.085461589   -4496.7113   0.48224626    48224.626    9.0466912 
    6200   -4496.8062         25.2         25.2         25.2   0.09485575   -4496.7113   0.53525603    48222.103    9.0466912 
    6300   -4496.7981         25.2         25.2         25.2  0.086740593   -4496.7113   0.48946348    48224.101    9.0466912 
    6400   -4496.7992         25.2         25.2         25.2  0.087915163   -4496.7113   0.49609139     48224.86    9.0466912 
    6500   -4496.7923         25.2         25.2         25.2  0.080984885   -4496.7113   0.45698493    48224.873    9.0466912 
    6600   -4496.7941         25.2         25.2         25.2  0.082737473   -4496.7113    0.4668745    48226.435    9.0466912 
    6700   -4496.8048         25.2         25.2         25.2  0.093479934   -4496.7113   0.52749252    48223.286    9.0466912 
    6800   -4496.7957         25.2         25.2         25.2  0.084389206   -4496.7113   0.47619497     48223.24    9.0466912 
    6900   -4496.8057         25.2         25.2         25.2  0.094347768   -4496.7113   0.53238957    48222.298    9.0466912 
    7000   -4496.8034         25.2         25.2         25.2   0.09210438   -4496.7113   0.51973048    48220.989    9.0466912 
    7100   -4496.7964         25.2         25.2         25.2   0.08507769   -4496.7113   0.48007998     48224.26    9.0466912 
    7200    -4496.807         25.2         25.2         25.2  0.095620458   -4496.7113   0.53957116    48222.935    9.0466912 
    7300   -4496.7916         25.2         25.2         25.2   0.08028841   -4496.7113   0.45305483    48224.878    9.0466912 
    7400   -4496.7987         25.2         25.2         25.2  0.087347718   -4496.7113   0.49288939    48224.011    9.0466912 
    7500   -4496.8036         25.2         25.2         25.2  0.092280192   -4496.7113   0.52072256    48223.471    9.0466912 
    7600   -4496.8068         25.2         25.2         25.2  0.095427018   -4496.7113    0.5384796    48221.526    9.0466912 
    7700   -4496.7914         25.2         25.2         25.2  0.080095241   -4496.7113   0.45196481    48225.682    9.0466912 
    7800   -4496.7946         25.2         25.2         25.2  0.083223153   -4496.7113   0.46961512    48224.281    9.0466912 
    7900   -4496.8016         25.2         25.2         25.2  0.090280595   -4496.7113   0.50943915    48222.263    9.0466912 
    8000   -4496.7995         25.2         25.2         25.2  0.088123362   -4496.7113   0.49726622     48224.39    9.0466912 
    8100   -4496.7974         25.2         25.2         25.2  0.086051576   -4496.7113   0.48557546    48224.526    9.0466912 
    8200   -4496.7994         25.2         25.2         25.2  0.088112582   -4496.7113    0.4972054     48225.15    9.0466912 
    8300   -4496.7959         25.2         25.2         25.2  0.084589664   -4496.7113   0.47732613    48223.701    9.0466912 
    8400   -4496.7983         25.2         25.2         25.2  0.086922204   -4496.7113   0.49048828    48223.496    9.0466912 
    8500   -4496.8045         25.2         25.2         25.2  0.093159765   -4496.7113   0.52568585    48221.163    9.0466912 
    8600   -4496.8009         25.2         25.2         25.2  0.089558545   -4496.7113   0.50536474     48225.08    9.0466912 
    8700   -4496.8035         25.2         25.2         25.2  0.092159743   -4496.7113   0.52004289    48222.094    9.0466912 
    8800   -4496.7988         25.2         25.2         25.2   0.08750448   -4496.7113   0.49377397    48224.525    9.0466912 
    8900   -4496.7981         25.2         25.2         25.2  0.086763178   -4496.7113   0.48959092    48224.777    9.0466912 
    9000   -4496.8002         25.2         25.2         25.2   0.08888961   -4496.7113   0.50159004    48224.775    9.0466912 
    9100   -4496.8073         25.2         25.2         25.2  0.095980213   -4496.7113   0.54160119    48222.553    9.0466912 
    9200   -4496.7984         25.2         25.2         25.2  0.087025985   -4496.7113    0.4910739    48222.888    9.0466912 
    9300   -4496.7983         25.2         25.2         25.2  0.087001359   -4496.7113   0.49093494    48225.483    9.0466912 
    9400   -4496.8032         25.2         25.2         25.2   0.09187516   -4496.7113   0.51843703    48222.586    9.0466912 
    9500   -4496.7927         25.2         25.2         25.2  0.081343476   -4496.7113    0.4590084    48225.469    9.0466912 
    9600      -4496.8         25.2         25.2         25.2   0.08871782   -4496.7113   0.50062066    48223.556    9.0466912 
    9700   -4496.8011         25.2         25.2         25.2  0.089733199   -4496.7113   0.50635028    48224.786    9.0466912 
    9800   -4496.7934         25.2         25.2         25.2   0.08205224   -4496.7113   0.46300784    48225.467    9.0466912 
    9900   -4496.7968         25.2         25.2         25.2  0.085510774   -4496.7113   0.48252381    48223.386    9.0466912 
   10000   -4496.7927         25.2         25.2         25.2  0.081405232   -4496.7113   0.45935688    48223.754    9.0466912 
   10001   -4496.7924         25.2         25.2         25.2  0.081084892   -4496.7113   0.45754925    48223.813    9.0466912 
Loop time of 27.1442 on 1 procs for 10000 steps with 1372 atoms

Performance: 31.830 ns/day, 0.754 hours/ns, 368.403 timesteps/s
99.7% CPU use with 1 MPI tasks x 1 OpenMP threads

MPI task timing breakdown:
Section |  min time  |  avg time  |  max time  |%varavg| %total
---------------------------------------------------------------
Pair    | 26.831     | 26.831     | 26.831     |   0.0 | 98.85
Bond    | 0.00088429 | 0.00088429 | 0.00088429 |   0.0 |  0.00
Neigh   | 0          | 0          | 0          |   0.0 |  0.00
Comm    | 0.15658    | 0.15658    | 0.15658    |   0.0 |  0.58
Output  | 0.0026819  | 0.0026819  | 0.0026819  |   0.0 |  0.01
Modify  | 0.093078   | 0.093078   | 0.093078   |   0.0 |  0.34
Other   |            | 0.05959    |            |       |  0.22

Nlocal:    1372 ave 1372 max 1372 min
Histogram: 1 0 0 0 0 0 0 0 0 0
Nghost:    4712 ave 4712 max 4712 min
Histogram: 1 0 0 0 0 0 0 0 0 0
Neighs:    120736 ave 120736 max 120736 min
Histogram: 1 0 0 0 0 0 0 0 0 0

Total # of neighbors = 120736
Ave neighs/atom = 88
Ave special neighs/atom = 0
Neighbor list builds = 0
Dangerous builds = 0
unfix 1
variable thermofac     equal 100.0
variable tempdamp equal ${thermofac}*${timestep1}
variable tempdamp equal 100*${timestep1}
variable tempdamp equal 100*0.001
variable presfac     equal 1000.0
variable presdamp equal ${presfac}*${timestep1}
variable presdamp equal 1000*${timestep1}
variable presdamp equal 1000*0.001

#
#-----------NPT ------------------------
#
fix     2 all npt temp ${tempset} ${tempset} ${tempdamp} iso ${presset} ${presset} ${presdamp}
fix     2 all npt temp 1.0 ${tempset} ${tempdamp} iso ${presset} ${presset} ${presdamp}
fix     2 all npt temp 1.0 1.0 ${tempdamp} iso ${presset} ${presset} ${presdamp}
fix     2 all npt temp 1.0 1.0 0.1 iso ${presset} ${presset} ${presdamp}
fix     2 all npt temp 1.0 1.0 0.1 iso 1 ${presset} ${presdamp}
fix     2 all npt temp 1.0 1.0 0.1 iso 1 1 ${presdamp}
fix     2 all npt temp 1.0 1.0 0.1 iso 1 1 1
run     10000
Per MPI rank memory allocation (min/avg/max) = 6.597 | 6.597 | 6.597 Mbytes
Step PotEng Lx Ly Lz KinEng TotEng Temp Press Density 
   10001   -4496.7924         25.2         25.2         25.2  0.081084892   -4496.7113   0.45754925    48223.813    9.0466912 
   10100   -4504.3415    25.473037    25.473037    25.473037  0.092546637   -4504.2489   0.52222607    117.63307    8.7588923 
   10200   -4504.3306    25.473943    25.473943    25.473943   0.10739295   -4504.2232   0.60600147   -31.458502    8.7579583 
   10300   -4504.3139    25.473861    25.473861    25.473861    0.1219097    -4504.192    0.6879172   -14.981099    8.7580426 
   10400   -4504.2938    25.473827    25.473827    25.473827   0.13604427   -4504.1578   0.76767638   -4.6016369    8.7580779 
   10500    -4504.283    25.473822    25.473822    25.473822   0.16007323   -4504.1229     0.903268  -0.57598438    8.7580831 
   10600   -4504.2484    25.473839    25.473839    25.473839   0.15678831   -4504.0916   0.88473172   0.72856862    8.7580657 
   10700   -4504.2544    25.473848    25.473848    25.473848   0.18416997   -4504.0702    1.0392421    1.0669107    8.7580565 
   10800   -4504.2432     25.47386     25.47386     25.47386   0.17940235   -4504.0638    1.0123391    1.0823224    8.7580442 
   10900   -4504.2245    25.473866    25.473866    25.473866   0.15216815   -4504.0723   0.85866087    1.0613282    8.7580381 
   11000   -4504.2892     25.47382     25.47382     25.47382   0.20704548   -4504.0822     1.168325    1.0308342    8.7580855 
   11100     -4504.29    25.473831    25.473831    25.473831   0.19915269   -4504.0909    1.1237872    1.0025568    8.7580737 
   11200   -4504.2679    25.473816    25.473816    25.473816   0.17905315   -4504.0888    1.0103687    1.0054428    8.7580897 
   11300   -4504.2535    25.473864    25.473864    25.473864   0.17110411   -4504.0824    0.9655135   0.96995406    8.7580394 
   11400   -4504.2393    25.473834    25.473834    25.473834   0.16699597   -4504.0723   0.94233188    1.0030915    8.7580708 
   11500   -4504.2534    25.473869    25.473869    25.473869   0.18163639   -4504.0717    1.0249455   0.97726587    8.7580349 
   11600   -4504.2712    25.473839    25.473839    25.473839   0.19500755   -4504.0762    1.1003968   0.98251944    8.7580656 
   11700   -4504.2673    25.473827    25.473827    25.473827   0.18059167   -4504.0867    1.0190503   0.99414985    8.7580781 
   11800    -4504.265    25.473839    25.473839    25.473839   0.17222184   -4504.0927   0.97182069   0.99226622    8.7580651 
   11900   -4504.2649    25.473844    25.473844    25.473844   0.17876426   -4504.0862    1.0087385   0.98783268      8.75806 
   12000   -4504.2736    25.473838    25.473838    25.473838   0.19862403    -4504.075    1.1208041   0.98948553    8.7580665 
   12100   -4504.2485    25.473854    25.473854    25.473854   0.17629991   -4504.0722   0.99483259   0.99950928    8.7580505 
   12200   -4504.2522    25.473833    25.473833    25.473833   0.17752931   -4504.0747    1.0017699   0.99199044    8.7580722 
   12300   -4504.2387    25.473849    25.473849    25.473849   0.15370181    -4504.085   0.86731506   0.97871163    8.7580554 
   12400   -4504.2432    25.473839    25.473839    25.473839    0.1535334   -4504.0897   0.86636473   0.98258056    8.7580658 
   12500   -4504.2546    25.473849    25.473849    25.473849   0.16624666   -4504.0884   0.93810365   0.98196657    8.7580553 
   12600   -4504.2471    25.473838    25.473838    25.473838   0.16699524   -4504.0802   0.94232777    1.0056993     8.758066 
   12700   -4504.2804    25.473846    25.473846    25.473846   0.20774926   -4504.0726    1.1722963   0.97718258    8.7580585 
   12800   -4504.2571     25.47384     25.47384     25.47384   0.18261108   -4504.0745    1.0304455   0.99963702     8.758064 
   12900   -4504.2601    25.473832    25.473832    25.473832   0.17848965   -4504.0816    1.0071889    0.9997056    8.7580727 
   13000   -4504.2861     25.47384     25.47384     25.47384   0.19868216   -4504.0874    1.1211321   0.98830318    8.7580644 
   13100   -4504.2588    25.473831    25.473831    25.473831   0.17192184   -4504.0869   0.97012779    1.0066238     8.758074 
   13200   -4504.2606    25.473851    25.473851    25.473851   0.18004344   -4504.0805    1.0159567   0.98178342    8.7580527 
   13300   -4504.2728    25.473853    25.473853    25.473853   0.19885595   -4504.0739    1.1221128   0.98355393    8.7580508 
   13400   -4504.2659    25.473807    25.473807    25.473807   0.19324803   -4504.0726    1.0904682     1.020927    8.7580982 
   13500   -4504.2649    25.473854    25.473854    25.473854   0.18292928   -4504.0819    1.0322411    0.9822955    8.7580502 
   13600   -4504.2478    25.473853    25.473853    25.473853   0.16233319   -4504.0854   0.91602057   0.99605744    8.7580513 
   13700   -4504.2716    25.473807    25.473807    25.473807   0.19002244   -4504.0816    1.0722667    1.0067657    8.7580985 
   13800   -4504.2612    25.473864    25.473864    25.473864   0.17700257   -4504.0842    0.9987976   0.98354704    8.7580393 
   13900   -4504.2696    25.473827    25.473827    25.473827   0.19255295    -4504.077    1.0865459   0.99663442    8.7580781 
   14000   -4504.2671    25.473834    25.473834    25.473834   0.18895049   -4504.0781    1.0662178   0.99447697    8.7580707 
   14100   -4504.2602    25.473842    25.473842    25.473842   0.17772403   -4504.0824    1.0028686   0.99022746    8.7580619 
   14200   -4504.2421    25.473863    25.473863    25.473863   0.15659174   -4504.0855   0.88362247   0.96466546    8.7580408 
   14300   -4504.2344    25.473826    25.473826    25.473826   0.15156053   -4504.0828   0.85523216     1.014387    8.7580787 
   14400   -4504.2682     25.47385     25.47385     25.47385   0.18794764   -4504.0803    1.0605589   0.97345862    8.7580541 
   14500   -4504.2437    25.473825    25.473825    25.473825   0.16562782    -4504.078   0.93461164   0.99789054      8.75808 
   14600    -4504.234    25.473858    25.473858    25.473858   0.15082808   -4504.0831   0.85109903   0.99635201    8.7580461 
   14700   -4504.2843    25.473819    25.473819    25.473819   0.20382417   -4504.0805    1.1501476   0.99039389    8.7580861 
   14800    -4504.235    25.473866    25.473866    25.473866   0.15089109   -4504.0841    0.8514546   0.98990633    8.7580377 
   14900   -4504.2609    25.473834    25.473834    25.473834   0.18092587     -4504.08    1.0209361   0.98602794    8.7580705 
   15000   -4504.2574    25.473847    25.473847    25.473847   0.17692721   -4504.0805   0.99837235   0.97794842    8.7580568 
   15100   -4504.2462    25.473834    25.473834    25.473834   0.16515077    -4504.081   0.93191971   0.99405781    8.7580704 
   15200   -4504.2585    25.473848    25.473848    25.473848   0.16908919   -4504.0894   0.95414362   0.98566169    8.7580567 
   15300   -4504.2723    25.473827    25.473827    25.473827    0.1829587   -4504.0894    1.0324071    1.0056595    8.7580783 
   15400   -4504.2784    25.473832    25.473832    25.473832   0.19349033   -4504.0849    1.0918354   0.99374673    8.7580732 
   15500   -4504.2609    25.473844    25.473844    25.473844   0.17935007   -4504.0815    1.0120442   0.99071435    8.7580606 
   15600   -4504.2529     25.47384     25.47384     25.47384   0.17688173    -4504.076    0.9981157   0.99837085     8.758064 
   15700   -4504.2582    25.473832    25.473832    25.473832   0.18379375   -4504.0744    1.0371191   0.98829713     8.758073 
   15800   -4504.2489    25.473853    25.473853    25.473853   0.16531386   -4504.0836   0.93284001   0.98562043    8.7580513 
   15900   -4504.2593    25.473844    25.473844    25.473844   0.17520173   -4504.0841   0.98863574   0.99108187    8.7580601 
   16000   -4504.2513    25.473833    25.473833    25.473833   0.17003407   -4504.0813   0.95947541    1.0002496    8.7580717 
   16100   -4504.2576    25.473844    25.473844    25.473844   0.17910581   -4504.0785    1.0106658   0.98903897    8.7580604 
   16200   -4504.2753    25.473828    25.473828    25.473828   0.20109127   -4504.0742    1.1347263   0.99412144    8.7580764 
   16300   -4504.2467    25.473848    25.473848    25.473848   0.16854281   -4504.0782    0.9510605   0.99841803    8.7580559 
   16400   -4504.2668    25.473838    25.473838    25.473838   0.18164842   -4504.0852    1.0250134   0.98269699    8.7580665 
   16500   -4504.2549     25.47384     25.47384     25.47384   0.16618362   -4504.0887   0.93774794   0.99623231    8.7580643 
   16600   -4504.2626    25.473829    25.473829    25.473829   0.17935822   -4504.0832    1.0120901    1.0020359    8.7580762 
   16700   -4504.2502    25.473843    25.473843    25.473843   0.17214237   -4504.0781   0.97137225   0.98104891    8.7580609 
   16800   -4504.2379    25.473846    25.473846    25.473846   0.15898259   -4504.0789   0.89711366   0.98769635     8.758058 
   16900   -4504.2456    25.473849    25.473849    25.473849   0.16674538   -4504.0788   0.94091785   0.98993217    8.7580555 
   17000   -4504.2615     25.47384     25.47384     25.47384   0.18201443   -4504.0795    1.0270787   0.98958811    8.7580649 
   17100   -4504.2558    25.473847    25.473847    25.473847   0.17069468   -4504.0851   0.96320312   0.99345815    8.7580578 
   17200   -4504.2797    25.473824    25.473824    25.473824   0.19505391   -4504.0846    1.1006584    1.0015773    8.7580812 
   17300   -4504.2719    25.473835    25.473835    25.473835   0.18939937   -4504.0825    1.0687508   0.98851261    8.7580697 
   17400   -4504.2582    25.473843    25.473843    25.473843   0.18013856   -4504.0781    1.0164935   0.98656318    8.7580614 
   17500   -4504.2521    25.473853    25.473853    25.473853   0.17437983   -4504.0777   0.98399785   0.98513062    8.7580511 
   17600    -4504.253    25.473842    25.473842    25.473842   0.17372459   -4504.0793   0.98030046   0.99339694    8.7580624 
   17700   -4504.2615    25.473845    25.473845    25.473845   0.18194702   -4504.0796    1.0266983   0.99631961    8.7580594 
   17800   -4504.2677    25.473829    25.473829    25.473829   0.18780318   -4504.0799    1.0597437   0.98980423    8.7580762 
   17900   -4504.2501    25.473845    25.473845    25.473845   0.16571386   -4504.0844   0.93509715   0.98905688    8.7580591 
   18000   -4504.2517    25.473836    25.473836    25.473836   0.16827646   -4504.0834   0.94955752    1.0079825    8.7580685 
   18100   -4504.2738    25.473819    25.473819    25.473819   0.19437767   -4504.0795    1.0968425    1.0029538    8.7580861 
   18200   -4504.2665    25.473856    25.473856    25.473856   0.18512448   -4504.0814    1.0446282   0.98449567    8.7580478 
   18300   -4504.2534    25.473847    25.473847    25.473847   0.17448718   -4504.0789   0.98460362    0.9955507    8.7580576 
   18400   -4504.2686    25.473822    25.473822    25.473822   0.19293462   -4504.0756    1.0886996   0.99191486    8.7580831 
   18500   -4504.2599    25.473855    25.473855    25.473855   0.17369441   -4504.0862   0.98013017   0.97957112    8.7580492 
   18600   -4504.2515    25.473835    25.473835    25.473835   0.16202624   -4504.0895   0.91428851   0.99462593      8.75807 
   18700   -4504.2638     25.47383     25.47383     25.47383   0.17797997   -4504.0858    1.0043129   0.99007643     8.758075 
   18800    -4504.245    25.473855    25.473855    25.473855   0.16237666   -4504.0826   0.91626587   0.98918737     8.758049 
   18900   -4504.2665    25.473825    25.473825    25.473825   0.19030902   -4504.0762    1.0738838    1.0001801    8.7580803 
   19000   -4504.2584    25.473853    25.473853    25.473853   0.17963367   -4504.0788    1.0136444   0.97924865    8.7580507 
   19100   -4504.2433    25.473834    25.473834    25.473834   0.16153956   -4504.0818   0.91154225   0.99317904    8.7580706 
   19200   -4504.2595    25.473844    25.473844    25.473844   0.17616916   -4504.0833   0.99409478   0.98622886    8.7580601 
   19300   -4504.2519    25.473841    25.473841    25.473841   0.16968678   -4504.0822   0.95751572   0.99702592    8.7580637 
   19400   -4504.2441    25.473851    25.473851    25.473851   0.16396194   -4504.0802   0.92521136   0.98040642    8.7580529 
   19500   -4504.2565    25.473848    25.473848    25.473848   0.17507519   -4504.0814   0.98792165   0.98078517    8.7580559 
   19600   -4504.2654    25.473822    25.473822    25.473822   0.18542697   -4504.0799    1.0463351   0.99774474    8.7580827 
   19700   -4504.2486    25.473854    25.473854    25.473854   0.16632696   -4504.0823   0.93855679   0.98680568    8.7580497 
   19800   -4504.2675    25.473839    25.473839    25.473839   0.18842069   -4504.0791    1.0632282   0.99055792    8.7580654 
   19900   -4504.2782    25.473826    25.473826    25.473826   0.20116797    -4504.077    1.1351591    1.0042243    8.7580786 
   20000   -4504.2474    25.473855    25.473855    25.473855   0.16581755   -4504.0816   0.93568227   0.99046495    8.7580487 
   20001   -4504.2484    25.473854    25.473854    25.473854   0.16691345   -4504.0815   0.94186626   0.99047856    8.7580499 
Loop time of 29.3608 on 1 procs for 10000 steps with 1372 atoms

Performance: 29.427 ns/day, 0.816 hours/ns, 340.590 timesteps/s
99.7% CPU use with 1 MPI tasks x 1 OpenMP threads

MPI task timing breakdown:
Section |  min time  |  avg time  |  max time  |%varavg| %total
---------------------------------------------------------------
Pair    | 28.76      | 28.76      | 28.76      |   0.0 | 97.96
Bond    | 0.00093849 | 0.00093849 | 0.00093849 |   0.0 |  0.00
Neigh   | 0          | 0          | 0          |   0.0 |  0.00
Comm    | 0.14973    | 0.14973    | 0.14973    |   0.0 |  0.51
Output  | 0.0025613  | 0.0025613  | 0.0025613  |   0.0 |  0.01
Modify  | 0.38848    | 0.38848    | 0.38848    |   0.0 |  1.32
Other   |            | 0.05864    |            |       |  0.20

Nlocal:    1372 ave 1372 max 1372 min
Histogram: 1 0 0 0 0 0 0 0 0 0
Nghost:    4712 ave 4712 max 4712 min
Histogram: 1 0 0 0 0 0 0 0 0 0
Neighs:    120736 ave 120736 max 120736 min
Histogram: 1 0 0 0 0 0 0 0 0 0

Total # of neighbors = 120736
Ave neighs/atom = 88
Ave special neighs/atom = 0
Neighbor list builds = 0
Dangerous builds = 0

variable natoms equal "count(all)"
variable teng equal "pe"
variable length equal "lx"
variable latconst equal ${length}/${unit_cells}
variable latconst equal 25.4738541382908/${unit_cells}
variable latconst equal 25.4738541382908/7
variable ecoh equal "v_teng/v_natoms"
variable T equal "temp"

print ""

print "-------------------------------"
-------------------------------
print "Total energy (eV) = ${teng};"
Total energy (eV) = -4504.24839053461;
print "Number of atoms = ${natoms};"
Number of atoms = 1372;
print "Lattice constant (Angstoms) = ${length};"
Lattice constant (Angstoms) = 25.4738541382908;
print "Cohesive energy (eV) = ${ecoh};"
Cohesive energy (eV) = -3.28297987648295;

print "All done!"
All done!
print "-------------------------------"
-------------------------------
print ""

print "${latconst}" file lat_const_finite.txt
3.63912201975583
print "${T}" file fin_temp.txt
0.941866260905297
Total wall time: 0:00:56
# ---------- Initialize Simulation ---------------------
units metal
dimension 3
boundary p p p
atom_style full
variable stable_structure file stable.txt
variable lattice_guess file lattice_guess.txt
lattice ${stable_structure} ${lattice_guess}
lattice fcc ${lattice_guess}
lattice fcc 3.6
Lattice spacing in x,y,z = 3.6 3.6 3.6
region box block 0 1 0 1 0 1 units lattice
create_box 1 box
Created orthogonal box = (0 0 0) to (3.6 3.6 3.6)
  1 by 1 by 1 MPI processor grid
create_atoms 1 box
Created 4 atoms
  create_atoms CPU = 0.0011939 secs
variable unit_cells equal "7"
replicate ${unit_cells} ${unit_cells} ${unit_cells}
replicate 7 ${unit_cells} ${unit_cells}
replicate 7 7 ${unit_cells}
replicate 7 7 7
  orthogonal box = (0 0 0) to (25.2 25.2 25.2)
  1 by 1 by 1 MPI processor grid
  1372 atoms
  0 = max # of 1-2 neighbors
  0 = max # of 1-3 neighbors
  0 = max # of 1-4 neighbors
  1 = max # of special neighbors
  special bonds CPU = 0.00015487 secs
  replicate CPU = 0.000615111 secs

# ---------- Define Interatomic Potential ---------------------
variable pairstyle file pairsty.txt
pair_style ${pairstyle}
pair_style eam/fs
variable potential file potential.txt
variable type file type.txt
pair_coeff * * ${potential} ${type}
pair_coeff * * Cu1.eam.fs ${type}
pair_coeff * * Cu1.eam.fs Cu
neighbor 2.0 bin
neigh_modify delay 10 check yes

# ---------- Define Thermo State ---------------------
variable tempset     file lat_temp.txt # K
variable presset     equal 1.0 # bars

# ---------- Run Minimization ---------------------
min_style cg
minimize 1e-25 1e-25 5000 1000
WARNING: Using 'neigh_modify every 1 delay 0 check yes' setting during minimization (../min.cpp:168)
Neighbor list info ...
  update every 1 steps, delay 0 steps, check yes
  max neighbors/atom: 2000, page size: 100000
  master list distance cutoff = 8
  ghost atom cutoff = 8
  binsize = 4, bins = 7 7 7
  1 neighbor lists, perpetual/occasional/extra = 1 0 0
  (1) pair eam/fs, perpetual
      attributes: half, newton on
      pair build: half/bin/newton
      stencil: half/bin/3d/newton
      bin: standard
Per MPI rank memory allocation (min/avg/max) = 7.722 | 7.722 | 7.722 Mbytes
Step Temp E_pair E_mol TotEng Press 
       0            0   -4496.8886            0   -4496.8886    48195.375 
       1            0   -4496.8886            0   -4496.8886    48195.375 
Loop time of 0.00935621 on 1 procs for 1 steps with 1372 atoms

99.7% CPU use with 1 MPI tasks x 1 OpenMP threads

Minimization stats:
  Stopping criterion = energy tolerance
  Energy initial, next-to-last, final = 
        -4496.88856881     -4496.88856881     -4496.88856881
  Force two-norm initial, final = 3.26473e-13 3.08016e-13
  Force max component initial, final = 1.50019e-14 1.47833e-14
  Final line search alpha, max atom move = 1 1.47833e-14
  Iterations, force evaluations = 1 2

MPI task timing breakdown:
Section |  min time  |  avg time  |  max time  |%varavg| %total
---------------------------------------------------------------
Pair    | 0.0092365  | 0.0092365  | 0.0092365  |   0.0 | 98.72
Bond    | 3.6e-07    | 3.6e-07    | 3.6e-07    |   0.0 |  0.00
Neigh   | 0          | 0          | 0          |   0.0 |  0.00
Comm    | 4.9148e-05 | 4.9148e-05 | 4.9148e-05 |   0.0 |  0.53
Output  | 0          | 0          | 0          |   0.0 |  0.00
Modify  | 0          | 0          | 0          |   0.0 |  0.00
Other   |            | 7.016e-05  |            |       |  0.75

Nlocal:    1372 ave 1372 max 1372 min
Histogram: 1 0 0 0 0 0 0 0 0 0
Nghost:    4712 ave 4712 max 4712 min
Histogram: 1 0 0 0 0 0 0 0 0 0
Neighs:    120736 ave 120736 max 120736 min
Histogram: 1 0 0 0 0 0 0 0 0 0

Total # of neighbors = 120736
Ave neighs/atom = 88
Ave special neighs/atom = 0
Neighbor list builds = 0
Dangerous builds = 0
velocity all create ${tempset} 87979 dist gaussian
velocity all create 301.0 87979 dist gaussian
variable timestep1     equal 0.001

timestep ${timestep1}
timestep 0.001
thermo 100
thermo_style custom step pe lx ly lz ke etotal temp press density
# ---------- Run Dynamics ---------------------
fix 1 all nve
run 10000
Per MPI rank memory allocation (min/avg/max) = 6.597 | 6.597 | 6.597 Mbytes
Step PotEng Lx Ly Lz KinEng TotEng Temp Press Density 
       1   -4496.8886         25.2         25.2         25.2    53.341913   -4443.5467          301    51755.671    9.0466912 
     100   -4470.9047         25.2         25.2         25.2    27.366032   -4443.5386     154.4222    56718.069    9.0466912 
     200    -4470.542         25.2         25.2         25.2    27.002321   -4443.5397    152.36984    56616.094    9.0466912 
     300   -4470.3504         25.2         25.2         25.2    26.811042   -4443.5393    151.29048    56420.572    9.0466912 
     400   -4468.5168         25.2         25.2         25.2      24.9783   -4443.5385    140.94861    56804.878    9.0466912 
     500   -4472.2218         25.2         25.2         25.2    28.681808     -4443.54    161.84691     56169.46    9.0466912 
     600   -4467.7113         25.2         25.2         25.2    24.172769   -4443.5385    136.40312    57080.547    9.0466912 
     700   -4472.7374         25.2         25.2         25.2    29.197458   -4443.5399    164.75665      56010.1    9.0466912 
     800   -4472.3099         25.2         25.2         25.2    28.770084   -4443.5398    162.34504     56153.18    9.0466912 
     900   -4470.9083         25.2         25.2         25.2    27.368914   -4443.5394    154.43847    56345.613    9.0466912 
    1000   -4470.0465         25.2         25.2         25.2    26.507185   -4443.5394    149.57586    56940.599    9.0466912 
    1100   -4473.2291         25.2         25.2         25.2    29.689173     -4443.54    167.53132    56126.471    9.0466912 
    1200   -4469.8743         25.2         25.2         25.2    26.335741   -4443.5386    148.60843    56374.994    9.0466912 
    1300   -4471.8922         25.2         25.2         25.2    28.352168     -4443.54    159.98681    56546.028    9.0466912 
    1400   -4472.0313         25.2         25.2         25.2    28.491507   -4443.5398    160.77308    56130.509    9.0466912 
    1500     -4470.42         25.2         25.2         25.2     26.88068   -4443.5393    151.68344    56242.367    9.0466912 
    1600    -4471.059         25.2         25.2         25.2    27.519246   -4443.5398    155.28676    56631.423    9.0466912 
    1700   -4470.1753         25.2         25.2         25.2    26.636662   -4443.5386    150.30648    56088.297    9.0466912 
    1800   -4472.3178         25.2         25.2         25.2    28.777412   -4443.5404    162.38639    56780.961    9.0466912 
    1900   -4470.3146         25.2         25.2         25.2    26.775788   -4443.5388    151.09155    56416.582    9.0466912 
    2000   -4470.6233         25.2         25.2         25.2    27.083776   -4443.5395    152.82948    56572.444    9.0466912 
    2100   -4469.6521         25.2         25.2         25.2    26.112904   -4443.5392      147.351    56749.695    9.0466912 
    2200     -4471.03         25.2         25.2         25.2    27.490822   -4443.5392    155.12637     56167.01    9.0466912 
    2300   -4470.8033         25.2         25.2         25.2    27.263663   -4443.5397    153.84455    56734.977    9.0466912 
    2400   -4469.1515         25.2         25.2         25.2    25.612539    -4443.539    144.52752    56523.984    9.0466912 
    2500   -4468.3335         25.2         25.2         25.2    24.794564    -4443.539    139.91181    56890.698    9.0466912 
    2600   -4468.5982         25.2         25.2         25.2    25.059584   -4443.5386    141.40728    56612.221    9.0466912 
    2700   -4472.4287         25.2         25.2         25.2    28.888706     -4443.54    163.01441    56216.512    9.0466912 
    2800   -4471.1968         25.2         25.2         25.2    27.657635   -4443.5391    156.06767    56538.718    9.0466912 
    2900   -4472.8741         25.2         25.2         25.2    29.334121     -4443.54    165.52782    56282.098    9.0466912 
    3000   -4472.0212         25.2         25.2         25.2    28.481541   -4443.5397    160.71684    56204.397    9.0466912 
    3100    -4468.792         25.2         25.2         25.2    25.253022    -4443.539    142.49882    56646.815    9.0466912 
    3200   -4469.0783         25.2         25.2         25.2    25.539158   -4443.5391    144.11344    56910.847    9.0466912 
    3300   -4469.6283         25.2         25.2         25.2    26.089551   -4443.5388    147.21922    56690.607    9.0466912 
    3400   -4469.6997         25.2         25.2         25.2    26.160567   -4443.5392    147.61995     56573.89    9.0466912 
    3500   -4469.1295         25.2         25.2         25.2     25.59066   -4443.5389    144.40406    56653.256    9.0466912 
    3600    -4471.093         25.2         25.2         25.2    27.553365   -4443.5396    155.47929    56261.335    9.0466912 
    3700   -4468.2354         25.2         25.2         25.2    24.696533   -4443.5389    139.35864    57111.458    9.0466912 
    3800   -4470.8662         25.2         25.2         25.2    27.326833   -4443.5394    154.20101    56132.298    9.0466912 
    3900   -4470.6614         25.2         25.2         25.2     27.12213   -4443.5393     153.0459    56251.898    9.0466912 
    4000    -4469.958         25.2         25.2         25.2    26.418823   -4443.5392    149.07725    56629.028    9.0466912 
    4100   -4471.3349         25.2         25.2         25.2    27.795428   -4443.5395    156.84521    56339.407    9.0466912 
    4200   -4468.7947         25.2         25.2         25.2    25.255896   -4443.5388    142.51504    56568.519    9.0466912 
    4300   -4469.6639         25.2         25.2         25.2    26.124642   -4443.5392    147.41723    56403.512    9.0466912 
    4400   -4468.9794         25.2         25.2         25.2    25.440489   -4443.5389    143.55667    56733.226    9.0466912 
    4500   -4468.9395         25.2         25.2         25.2    25.400621   -4443.5389     143.3317    56701.498    9.0466912 
    4600   -4470.7826         25.2         25.2         25.2    27.242767   -4443.5398    153.72664    56759.087    9.0466912 
    4700   -4470.8193         25.2         25.2         25.2    27.280304    -4443.539    153.93845    55984.675    9.0466912 
    4800   -4469.9852         25.2         25.2         25.2    26.445848   -4443.5393    149.22975    56695.269    9.0466912 
    4900   -4471.0677         25.2         25.2         25.2    27.528273   -4443.5394     155.3377    56117.591    9.0466912 
    5000   -4471.7972         25.2         25.2         25.2    28.257659   -4443.5396    159.45351    55945.571    9.0466912 
    5100   -4468.6575         25.2         25.2         25.2    25.118667   -4443.5388    141.74067    56573.191    9.0466912 
    5200   -4469.9077         25.2         25.2         25.2    26.368329   -4443.5394    148.79232    56467.461    9.0466912 
    5300   -4469.7484         25.2         25.2         25.2    26.209492   -4443.5389    147.89603    56290.178    9.0466912 
    5400   -4471.0599         25.2         25.2         25.2    27.520165   -4443.5398    155.29195    56705.565    9.0466912 
    5500   -4470.1791         25.2         25.2         25.2    26.640009   -4443.5391    150.32537    56368.488    9.0466912 
    5600    -4469.033         25.2         25.2         25.2    25.494008    -4443.539    143.85866    56592.064    9.0466912 
    5700   -4469.8901         25.2         25.2         25.2    26.350887   -4443.5392     148.6939    56308.825    9.0466912 
    5800    -4470.452         25.2         25.2         25.2    26.913034    -4443.539      151.866    55971.694    9.0466912 
    5900   -4470.8363         25.2         25.2         25.2    27.296473   -4443.5399    154.02969    56748.421    9.0466912 
    6000   -4470.0929         25.2         25.2         25.2    26.553842   -4443.5391    149.83914    56422.364    9.0466912 
    6100    -4469.884         25.2         25.2         25.2    26.344952   -4443.5391    148.66041    56651.286    9.0466912 
    6200   -4471.2671         25.2         25.2         25.2    27.727571   -4443.5395    156.46231    56296.137    9.0466912 
    6300   -4468.2065         25.2         25.2         25.2    24.667766   -4443.5387    139.19631    56814.753    9.0466912 
    6400   -4469.6625         25.2         25.2         25.2    26.123254   -4443.5393     147.4094    56495.203    9.0466912 
    6500   -4469.1542         25.2         25.2         25.2    25.615262    -4443.539    144.54288    56152.741    9.0466912 
    6600   -4470.7143         25.2         25.2         25.2    27.174924   -4443.5394    153.34381    56199.074    9.0466912 
    6700   -4473.9068         25.2         25.2         25.2    30.366616   -4443.5401    171.35402    55943.221    9.0466912 
    6800   -4470.8642         25.2         25.2         25.2    27.324865   -4443.5393     154.1899    56657.266    9.0466912 
    6900   -4470.6215         25.2         25.2         25.2     27.08219   -4443.5394    152.82052     56736.36    9.0466912 
    7000   -4470.8301         25.2         25.2         25.2     27.29055   -4443.5395    153.99627    56409.991    9.0466912 
    7100   -4469.4894         25.2         25.2         25.2    25.950752   -4443.5387      146.436    56461.744    9.0466912 
    7200   -4471.5244         25.2         25.2         25.2    27.984461   -4443.5399     157.9119    56363.247    9.0466912 
    7300   -4469.7038         25.2         25.2         25.2    26.164635   -4443.5392     147.6429    56400.495    9.0466912 
    7400     -4469.94         25.2         25.2         25.2    26.400846   -4443.5391    148.97581    56414.287    9.0466912 
    7500   -4470.2703         25.2         25.2         25.2    26.731002   -4443.5393    150.83883    56632.136    9.0466912 
    7600   -4470.7474         25.2         25.2         25.2    27.208217   -4443.5392    153.53167    56431.319    9.0466912 
    7700   -4472.9816         25.2         25.2         25.2    29.441529   -4443.5401     166.1339    56308.881    9.0466912 
    7800   -4469.7053         25.2         25.2         25.2     26.16649   -4443.5388    147.65338    56590.432    9.0466912 
    7900    -4471.818         25.2         25.2         25.2    28.278113   -4443.5398    159.56893    56165.146    9.0466912 
    8000   -4471.3002         25.2         25.2         25.2    27.760747   -4443.5394    156.64951    56286.607    9.0466912 
    8100   -4470.5823         25.2         25.2         25.2    27.043095   -4443.5393    152.59992    56343.092    9.0466912 
    8200   -4471.3817         25.2         25.2         25.2    27.841734     -4443.54    157.10651    56544.538    9.0466912 
    8300   -4467.7596         25.2         25.2         25.2    24.221322   -4443.5383     136.6771    56743.132    9.0466912 
    8400   -4469.3373         25.2         25.2         25.2    25.798093   -4443.5392    145.57457    56738.833    9.0466912 
    8500   -4470.6476         25.2         25.2         25.2      27.1083   -4443.5393    152.96786    56310.313    9.0466912 
    8600   -4470.3986         25.2         25.2         25.2    26.859262   -4443.5394    151.56258     56510.91    9.0466912 
    8700   -4469.6071         25.2         25.2         25.2    26.067991   -4443.5391    147.09756    56496.798    9.0466912 
    8800   -4470.3357         25.2         25.2         25.2    26.796401   -4443.5393    151.20786     56219.47    9.0466912 
    8900   -4470.3027         25.2         25.2         25.2    26.763471   -4443.5392    151.02204    56475.004    9.0466912 
    9000   -4472.1901         25.2         25.2         25.2    28.650231   -4443.5398    161.66873    56350.718    9.0466912 
    9100   -4470.6769         25.2         25.2         25.2    27.137677   -4443.5393    153.13363    56359.253    9.0466912 
    9200   -4470.0638         25.2         25.2         25.2    26.524439   -4443.5394    149.67322    56526.623    9.0466912 
    9300   -4470.3281         25.2         25.2         25.2    26.788697   -4443.5394    151.16439    56593.522    9.0466912 
    9400   -4469.9883         25.2         25.2         25.2    26.449279    -4443.539    149.24911    56440.555    9.0466912 
    9500   -4470.7334         25.2         25.2         25.2    27.193749   -4443.5397    153.45003    56714.497    9.0466912 
    9600   -4470.9091         25.2         25.2         25.2    27.369748   -4443.5394    154.44317     56172.29    9.0466912 
    9700   -4471.4949         25.2         25.2         25.2    27.955487   -4443.5394     157.7484    56038.038    9.0466912 
    9800   -4470.3164         25.2         25.2         25.2    26.777304   -4443.5391     151.1001     56268.57    9.0466912 
    9900   -4469.6706         25.2         25.2         25.2    26.131496   -4443.5391    147.45591    56457.796    9.0466912 
   10000   -4470.8871         25.2         25.2         25.2    27.347516   -4443.5396    154.31772     56395.51    9.0466912 
   10001   -4470.9031         25.2         25.2         25.2    27.363524   -4443.5396    154.40805    56382.776    9.0466912 
Loop time of 30.4614 on 1 procs for 10000 steps with 1372 atoms

Performance: 28.364 ns/day, 0.846 hours/ns, 328.284 timesteps/s
99.7% CPU use with 1 MPI tasks x 1 OpenMP threads

MPI task timing breakdown:
Section |  min time  |  avg time  |  max time  |%varavg| %total
---------------------------------------------------------------
Pair    | 30.131     | 30.131     | 30.131     |   0.0 | 98.91
Bond    | 0.0011436  | 0.0011436  | 0.0011436  |   0.0 |  0.00
Neigh   | 0          | 0          | 0          |   0.0 |  0.00
Comm    | 0.16907    | 0.16907    | 0.16907    |   0.0 |  0.56
Output  | 0.0026107  | 0.0026107  | 0.0026107  |   0.0 |  0.01
Modify  | 0.097597   | 0.097597   | 0.097597   |   0.0 |  0.32
Other   |            | 0.06046    |            |       |  0.20

Nlocal:    1372 ave 1372 max 1372 min
Histogram: 1 0 0 0 0 0 0 0 0 0
Nghost:    4712 ave 4712 max 4712 min
Histogram: 1 0 0 0 0 0 0 0 0 0
Neighs:    120736 ave 120736 max 120736 min
Histogram: 1 0 0 0 0 0 0 0 0 0

Total # of neighbors = 120736
Ave neighs/atom = 88
Ave special neighs/atom = 0
Neighbor list builds = 0
Dangerous builds = 0
unfix 1
variable thermofac     equal 100.0
variable tempdamp equal ${thermofac}*${timestep1}
variable tempdamp equal 100*${timestep1}
variable tempdamp equal 100*0.001
variable presfac     equal 1000.0
variable presdamp equal ${presfac}*${timestep1}
variable presdamp equal 1000*${timestep1}
variable presdamp equal 1000*0.001

#
#-----------NPT ------------------------
#
fix     2 all npt temp ${tempset} ${tempset} ${tempdamp} iso ${presset} ${presset} ${presdamp}
fix     2 all npt temp 301.0 ${tempset} ${tempdamp} iso ${presset} ${presset} ${presdamp}
fix     2 all npt temp 301.0 301.0 ${tempdamp} iso ${presset} ${presset} ${presdamp}
fix     2 all npt temp 301.0 301.0 0.1 iso ${presset} ${presset} ${presdamp}
fix     2 all npt temp 301.0 301.0 0.1 iso 1 ${presset} ${presdamp}
fix     2 all npt temp 301.0 301.0 0.1 iso 1 1 ${presdamp}
fix     2 all npt temp 301.0 301.0 0.1 iso 1 1 1
run     10000
Per MPI rank memory allocation (min/avg/max) = 6.597 | 6.597 | 6.597 Mbytes
Step PotEng Lx Ly Lz KinEng TotEng Temp Press Density 
   10001   -4470.9031         25.2         25.2         25.2    27.363524   -4443.5396    154.40805    56382.776    9.0466912 
   10100   -4473.6688    25.666381    25.666381    25.666381    27.700056   -4445.9688    156.30704    -25078.69    8.5624392 
   10200   -4473.5872    25.448064    25.448064    25.448064    33.567602   -4440.0196    189.41668    12024.997    8.7847041 
   10300   -4468.1546    25.554417    25.554417    25.554417     37.11596   -4431.0386     209.4395   -4558.9795    8.6754786 
   10400   -4462.6801    25.530357    25.530357    25.530357    41.869516   -4420.8106    236.26307    709.05251    8.7000299 
   10500   -4454.4616    25.539738    25.539738    25.539738    44.105511   -4410.3561    248.88044    892.65483    8.6904457 
   10600   -4446.8139    25.556683    25.556683    25.556683     45.62838   -4401.1855    257.47375   -286.83894    8.6731715 
   10700   -4446.4513    25.544438    25.544438    25.544438    52.468662   -4393.9827    296.07238    2159.5054    8.6856502 
   10800   -4445.1885    25.574786    25.574786    25.574786    53.871122   -4391.3174    303.98624   -2407.0015    8.6547664 
   10900   -4445.9001    25.549624    25.549624    25.549624    52.420613   -4393.4795    295.80125     1939.691    8.6803627 
   11000   -4450.7612    25.560067    25.560067    25.560067    53.059151    -4397.702    299.40441   -568.48834     8.669727 
   11100    -4455.324    25.548994    25.548994    25.548994    55.507473   -4399.8165    313.21991   -138.83696    8.6810042 
   11200   -4453.8314    25.558556    25.558556    25.558556    53.617641   -4400.2137    302.55589   -1015.8396     8.671265 
   11300   -4452.6702    25.547475    25.547475    25.547475    55.594271   -4397.0759     313.7097    882.45596    8.6825533 
   11400   -4450.7323    25.565007    25.565007    25.565007    56.508824   -4394.2234    318.87038   -1539.0758    8.6647026 
   11500   -4450.0188    25.556354    25.556354    25.556354    56.716854    -4393.302    320.04426    230.82094    8.6735059 
   11600   -4447.5898    25.557251    25.557251    25.557251    52.144434   -4395.4453    294.24281     413.2532    8.6725932 
   11700   -4453.0259    25.555158    25.555158    25.555158    55.306764   -4397.7192    312.08734    -665.0858    8.6747243 
   11800   -4448.4747    25.551386    25.551386    25.551386     48.33852   -4400.1362    272.76664    748.56137    8.6785669 
   11900   -4444.7907    25.547962    25.547962    25.547962    45.550923   -4399.2397    257.03667    1373.3046     8.682056 
   12000   -4447.5453    25.558501    25.558501    25.558501    50.940236    -4396.605    287.44771   -185.02079    8.6713204 
   12100   -4448.2675    25.553347    25.553347    25.553347    53.989335   -4394.2782     304.6533     702.7486    8.6765686 
   12200   -4446.7256    25.563363    25.563363    25.563363    52.351212   -4394.3744    295.40963   -594.97971    8.6663739 
   12300    -4452.021    25.547854    25.547854    25.547854    56.100751   -4395.9203    316.56769    884.33102     8.682167 
   12400   -4449.8556    25.563601    25.563601    25.563601    51.467174   -4398.3884    290.42114   -1665.9291     8.666132 
   12500   -4451.8644    25.540187    25.540187    25.540187    52.347893   -4399.5165     295.3909     2001.973    8.6899874 
   12600   -4450.6773     25.56477     25.56477     25.56477    52.029319    -4398.648    293.59324   -1783.7374    8.6649431 
   12700   -4450.0126    25.551381    25.551381    25.551381    54.360772   -4395.6519    306.74926    655.64373    8.6785719 
   12800   -4449.9218    25.559619    25.559619    25.559619    56.264389   -4393.6574    317.49107   -588.33052    8.6701834 
   12900   -4448.2758     25.55549     25.55549     25.55549    53.541736    -4394.734    302.12757    127.45657    8.6743867 
   13000   -4453.6708    25.554656    25.554656    25.554656    56.507803    -4397.163    318.86462   -457.30817    8.6752358 
   13100   -4448.8118    25.557983    25.557983    25.557983    49.299392   -4399.5124    278.18869   -453.65194    8.6718479 
   13200   -4447.7359    25.541621    25.541621    25.541621    49.113453   -4398.6224    277.13947    2211.2252    8.6885241 
   13300   -4447.6892    25.569637    25.569637    25.569637    51.103202    -4396.586    288.36731   -1967.0216    8.6599965 
   13400   -4447.6402    25.542361    25.542361    25.542361    53.163551   -4394.4767    299.99353    2500.0301    8.6877694 
   13500   -4448.6105    25.564644    25.564644    25.564644    53.792261   -4394.8183    303.54124   -1444.4588    8.6650715 
   13600   -4450.1924    25.549519    25.549519    25.549519    53.116952   -4397.0755    299.73058    1162.1845    8.6804698 
   13700   -4452.1674      25.5564      25.5564      25.5564    54.004408    -4398.163    304.73835   -938.85306    8.6734593 
   13800   -4451.0677    25.555034    25.555034    25.555034    52.320858   -4398.7469    295.23834    51.708259    8.6748503 
   13900   -4450.3253    25.549055    25.549055    25.549055    53.091068   -4397.2342    299.58452    1215.9987    8.6809422 
   14000   -4449.3187    25.566512    25.566512    25.566512    54.296274   -4395.0224    306.38531   -1911.4996    8.6631723 
   14100   -4446.9871     25.54114     25.54114     25.54114    51.881981   -4395.1052    292.76183    2938.4812    8.6890149 
   14200   -4448.5878    25.570031    25.570031    25.570031    52.174271   -4396.4135    294.41118   -2579.6888    8.6595962 
   14300    -4450.289    25.539666    25.539666    25.539666    51.775086   -4398.5139    292.15864    2447.6853    8.6905194 
   14400   -4450.6824    25.565935    25.565935    25.565935    52.290304   -4398.3921    295.06593   -1977.2523    8.6637587 
   14500   -4448.9015    25.553057    25.553057    25.553057    52.450221   -4396.4513    295.96832    277.20095    8.6768643 
   14600   -4450.9263    25.546201    25.546201    25.546201    55.254723   -4395.6716    311.79368    1623.4951     8.683852 
   14700   -4452.2456    25.574124    25.574124    25.574124    56.486552   -4395.7591     318.7447   -3492.7523    8.6554393 
   14800   -4449.3761     25.53689     25.53689     25.53689    52.798109    -4396.578     297.9314    3222.0944    8.6933544 
   14900   -4448.4123    25.569172    25.569172    25.569172    51.407442   -4397.0048    290.08408   -1956.1299    8.6604685 
   15000   -4449.7475    25.546592    25.546592    25.546592    53.025298   -4396.7222    299.21339    1472.7758    8.6834532 
   15100   -4449.6178    25.556439    25.556439    25.556439     52.75607   -4396.8617    297.69418   -97.213079    8.6734194 
   15200   -4450.2708    25.558325    25.558325    25.558325    53.637372   -4396.6334    302.66723   -839.00947    8.6714999 
   15300   -4449.2361    25.547962    25.547962    25.547962    52.291809   -4396.9443    295.07443    1401.4995    8.6820563 
   15400   -4447.1009    25.562926    25.562926    25.562926    50.243022   -4396.8579    283.51344   -868.89222    8.6668188 
   15500   -4446.6507    25.543978    25.543978    25.543978    49.962063   -4396.6886    281.92804    2132.2211    8.6861194 
   15600    -4449.778    25.562813    25.562813    25.562813     52.89188   -4396.8861    298.46053   -1099.2759    8.6669337 
   15700    -4450.018     25.55336     25.55336     25.55336    51.623335   -4398.3946    291.30233     247.9295    8.6765554 
   15800   -4452.1265    25.544472    25.544472    25.544472    53.469931   -4398.6566    301.72239    889.74904    8.6856157 
   15900   -4452.4917     25.56759     25.56759     25.56759    54.633838   -4397.8579    308.29012     -2661.15    8.6620764 
   16000   -4447.9404    25.542641    25.542641    25.542641    51.869469    -4396.071    292.69123    2547.8488    8.6874835 
   16100    -4448.933    25.565206    25.565206    25.565206    54.272806   -4394.6602    306.25288   -1327.1072    8.6644996 
   16200   -4449.3911    25.555504    25.555504    25.555504    54.314718   -4395.0764    306.48939   -13.713799    8.6743715 
   16300    -4450.804    25.548826    25.548826    25.548826    54.241087   -4396.5629    306.07389    583.40325    8.6811759 
   16400   -4450.2399    25.563031    25.563031    25.563031    52.940956    -4397.299    298.73746    -1512.417    8.6667113 
   16500   -4450.2252    25.545126    25.545126    25.545126    53.338171    -4396.887    300.97888    1692.9127    8.6849481 
   16600   -4449.5491    25.563839    25.563839    25.563839    53.348156    -4396.201    301.03523   -1427.3758    8.6658895 
   16700   -4448.3122    25.549659    25.549659    25.549659    53.057631   -4395.2546    299.39584    1234.3771     8.680327 
   16800   -4449.1877    25.558576    25.558576    25.558576    54.654703    -4394.533    308.40786   -287.79188    8.6712443 
   16900    -4450.358    25.554452    25.554452    25.554452    54.256062    -4396.102     306.1584    187.95714    8.6754433 
   17000   -4450.2722    25.551629    25.551629    25.551629     51.83691   -4398.4353    292.50751    245.25648    8.6783187 
   17100   -4451.2233    25.556625    25.556625    25.556625    52.530842   -4398.6925    296.42325   -444.53893    8.6732301 
   17200   -4450.2517    25.549776    25.549776    25.549776    53.227322   -4397.0244    300.35338    1019.4904    8.6802073 
   17300   -4450.2068    25.565205    25.565205    25.565205    55.950723   -4394.2561     315.7211    -1780.476     8.664501 
   17400   -4449.7772    25.552122    25.552122    25.552122    55.100486   -4394.6767    310.92335      1061.89    8.6778172 
   17500   -4449.6629    25.556156    25.556156    25.556156    53.805143   -4395.8577    303.61393   -114.54959    8.6737077 
   17600    -4452.424    25.555793    25.555793    25.555793    54.717157   -4397.7068    308.76028   -578.78362    8.6740774 
   17700   -4452.2266    25.552479    25.552479    25.552479    53.669676   -4398.5569    302.84951    241.00129    8.6774534 
   17800   -4450.6049    25.559583    25.559583    25.559583    52.942749   -4397.6622    298.74758   -870.28572    8.6702199 
   17900   -4450.1705    25.547333    25.547333    25.547333    53.433259   -4396.7372    301.51545     1228.494     8.682698 
   18000   -4447.9085    25.562147    25.562147    25.562147    51.081398   -4396.8271    288.24427   -951.22044    8.6676109 
   18100   -4449.0335    25.545058    25.545058    25.545058    52.067845   -4396.9656    293.81063    1862.3875    8.6850176 
   18200   -4452.6811    25.564066    25.564066    25.564066     55.88063   -4396.8005    315.32558   -1680.2107    8.6656592 
   18300   -4451.1631    25.554906    25.554906    25.554906    55.462488   -4395.7006    312.96607   -116.07965    8.6749809 
   18400   -4448.2618    25.554589    25.554589    25.554589    53.358165   -4394.9036    301.09171    408.48166    8.6753041 
   18500   -4448.3452    25.559575    25.559575    25.559575    52.598147   -4395.7471    296.80304   -512.64271    8.6702274 
   18600   -4450.6579    25.547242    25.547242    25.547242    52.764102   -4397.8938     297.7395    1102.2959    8.6827901 
   18700   -4450.0225    25.562786    25.562786    25.562786    51.169586   -4398.8529     288.7419   -1446.3394    8.6669604 
   18800   -4449.3358     25.54103     25.54103     25.54103     51.53378    -4397.802    290.79699    2324.7659    8.6891272 
   18900   -4450.7836    25.568065    25.568065    25.568065    55.649306   -4395.1343    314.02026   -2124.9079    8.6615931 
   19000   -4447.9637    25.555254    25.555254    25.555254    55.942785   -4392.0209    315.67631    707.00306    8.6746264 
   19100   -4447.9129    25.555924    25.555924    25.555924    56.975426   -4390.9375    321.50334    539.08494    8.6739443 
   19200   -4450.5008    25.566304    25.566304    25.566304    54.645231   -4395.8555    308.35441    -1901.137    8.6633839 
   19300   -4449.7605    25.537963    25.537963    25.537963    51.521472   -4398.2391    290.72754    2853.4408    8.6922583 
   19400    -4449.423    25.568543    25.568543    25.568543    50.391889   -4399.0311    284.35348   -2183.1487    8.6611078 
   19500   -4449.3148    25.537863    25.537863    25.537863    51.668317   -4397.6465    291.55616    3022.0352    8.6923603 
   19600   -4449.9945     25.57093     25.57093     25.57093    54.685936   -4395.3086    308.58411   -2824.7702    8.6586825 
   19700   -4449.1039    25.549076    25.549076    25.549076    53.628416   -4395.4755    302.61669    1390.6561    8.6809205 
   19800   -4448.9951    25.550642    25.550642    25.550642    51.985319   -4397.0098    293.34495    779.72256    8.6793245 
   19900   -4451.5339    25.567226    25.567226    25.567226    52.513455   -4399.0205    296.32514   -2318.7787    8.6624462 
   20000   -4451.8296    25.533399    25.533399    25.533399    52.709275   -4399.1203    297.43012    3383.2854      8.69692 
   20001   -4451.8737    25.532842    25.532842    25.532842    52.784962   -4399.0888    297.85721     3460.899    8.6974893 
Loop time of 32.4286 on 1 procs for 10000 steps with 1372 atoms

Performance: 26.643 ns/day, 0.901 hours/ns, 308.370 timesteps/s
99.7% CPU use with 1 MPI tasks x 1 OpenMP threads

MPI task timing breakdown:
Section |  min time  |  avg time  |  max time  |%varavg| %total
---------------------------------------------------------------
Pair    | 31.803     | 31.803     | 31.803     |   0.0 | 98.07
Bond    | 0.0011501  | 0.0011501  | 0.0011501  |   0.0 |  0.00
Neigh   | 0.0031305  | 0.0031305  | 0.0031305  |   0.0 |  0.01
Comm    | 0.1573     | 0.1573     | 0.1573     |   0.0 |  0.49
Output  | 0.0025872  | 0.0025872  | 0.0025872  |   0.0 |  0.01
Modify  | 0.40245    | 0.40245    | 0.40245    |   0.0 |  1.24
Other   |            | 0.05946    |            |       |  0.18

Nlocal:    1372 ave 1372 max 1372 min
Histogram: 1 0 0 0 0 0 0 0 0 0
Nghost:    4712 ave 4712 max 4712 min
Histogram: 1 0 0 0 0 0 0 0 0 0
Neighs:    120752 ave 120752 max 120752 min
Histogram: 1 0 0 0 0 0 0 0 0 0

Total # of neighbors = 120752
Ave neighs/atom = 88.0117
Ave special neighs/atom = 0
Neighbor list builds = 1
Dangerous builds = 0

variable natoms equal "count(all)"
variable teng equal "pe"
variable length equal "lx"
variable latconst equal ${length}/${unit_cells}
variable latconst equal 25.5328422559011/${unit_cells}
variable latconst equal 25.5328422559011/7
variable ecoh equal "v_teng/v_natoms"
variable T equal "temp"

print ""

print "-------------------------------"
-------------------------------
print "Total energy (eV) = ${teng};"
Total energy (eV) = -4451.87371988312;
print "Number of atoms = ${natoms};"
Number of atoms = 1372;
print "Lattice constant (Angstoms) = ${length};"
Lattice constant (Angstoms) = 25.5328422559011;
print "Cohesive energy (eV) = ${ecoh};"
Cohesive energy (eV) = -3.24480591828216;

print "All done!"
All done!
print "-------------------------------"
-------------------------------
print ""

print "${latconst}" file lat_const_finite.txt
3.64754889370016
print "${T}" file fin_temp.txt
297.857208935391
Total wall time: 0:01:02
# ---------- Initialize Simulation ---------------------
units metal
dimension 3
boundary p p p
atom_style full
variable stable_structure file stable.txt
variable lattice_guess file lattice_guess.txt
lattice ${stable_structure} ${lattice_guess}
lattice fcc ${lattice_guess}
lattice fcc 3.6
Lattice spacing in x,y,z = 3.6 3.6 3.6
region box block 0 1 0 1 0 1 units lattice
create_box 1 box
Created orthogonal box = (0 0 0) to (3.6 3.6 3.6)
  1 by 1 by 1 MPI processor grid
create_atoms 1 box
Created 4 atoms
  create_atoms CPU = 0.00120709 secs
variable unit_cells equal "7"
replicate ${unit_cells} ${unit_cells} ${unit_cells}
replicate 7 ${unit_cells} ${unit_cells}
replicate 7 7 ${unit_cells}
replicate 7 7 7
  orthogonal box = (0 0 0) to (25.2 25.2 25.2)
  1 by 1 by 1 MPI processor grid
  1372 atoms
  0 = max # of 1-2 neighbors
  0 = max # of 1-3 neighbors
  0 = max # of 1-4 neighbors
  1 = max # of special neighbors
  special bonds CPU = 0.000168962 secs
  replicate CPU = 0.000610959 secs

# ---------- Define Interatomic Potential ---------------------
variable pairstyle file pairsty.txt
pair_style ${pairstyle}
pair_style eam/fs
variable potential file potential.txt
variable type file type.txt
pair_coeff * * ${potential} ${type}
pair_coeff * * Cu1.eam.fs ${type}
pair_coeff * * Cu1.eam.fs Cu
neighbor 2.0 bin
neigh_modify delay 10 check yes

# ---------- Define Thermo State ---------------------
variable tempset     file lat_temp.txt # K
variable presset     equal 1.0 # bars

# ---------- Run Minimization ---------------------
min_style cg
minimize 1e-25 1e-25 5000 1000
WARNING: Using 'neigh_modify every 1 delay 0 check yes' setting during minimization (../min.cpp:168)
Neighbor list info ...
  update every 1 steps, delay 0 steps, check yes
  max neighbors/atom: 2000, page size: 100000
  master list distance cutoff = 8
  ghost atom cutoff = 8
  binsize = 4, bins = 7 7 7
  1 neighbor lists, perpetual/occasional/extra = 1 0 0
  (1) pair eam/fs, perpetual
      attributes: half, newton on
      pair build: half/bin/newton
      stencil: half/bin/3d/newton
      bin: standard
Per MPI rank memory allocation (min/avg/max) = 7.722 | 7.722 | 7.722 Mbytes
Step Temp E_pair E_mol TotEng Press 
       0            0   -4496.8886            0   -4496.8886    48195.375 
       1            0   -4496.8886            0   -4496.8886    48195.375 
Loop time of 0.00921322 on 1 procs for 1 steps with 1372 atoms

99.7% CPU use with 1 MPI tasks x 1 OpenMP threads

Minimization stats:
  Stopping criterion = energy tolerance
  Energy initial, next-to-last, final = 
        -4496.88856881     -4496.88856881     -4496.88856881
  Force two-norm initial, final = 3.26473e-13 3.08016e-13
  Force max component initial, final = 1.50019e-14 1.47833e-14
  Final line search alpha, max atom move = 1 1.47833e-14
  Iterations, force evaluations = 1 2

MPI task timing breakdown:
Section |  min time  |  avg time  |  max time  |%varavg| %total
---------------------------------------------------------------
Pair    | 0.0090966  | 0.0090966  | 0.0090966  |   0.0 | 98.73
Bond    | 3.45e-07   | 3.45e-07   | 3.45e-07   |   0.0 |  0.00
Neigh   | 0          | 0          | 0          |   0.0 |  0.00
Comm    | 4.6592e-05 | 4.6592e-05 | 4.6592e-05 |   0.0 |  0.51
Output  | 0          | 0          | 0          |   0.0 |  0.00
Modify  | 0          | 0          | 0          |   0.0 |  0.00
Other   |            | 6.972e-05  |            |       |  0.76

Nlocal:    1372 ave 1372 max 1372 min
Histogram: 1 0 0 0 0 0 0 0 0 0
Nghost:    4712 ave 4712 max 4712 min
Histogram: 1 0 0 0 0 0 0 0 0 0
Neighs:    120736 ave 120736 max 120736 min
Histogram: 1 0 0 0 0 0 0 0 0 0

Total # of neighbors = 120736
Ave neighs/atom = 88
Ave special neighs/atom = 0
Neighbor list builds = 0
Dangerous builds = 0
velocity all create ${tempset} 87979 dist gaussian
velocity all create 601.0 87979 dist gaussian
variable timestep1     equal 0.001

timestep ${timestep1}
timestep 0.001
thermo 100
thermo_style custom step pe lx ly lz ke etotal temp press density
# ---------- Run Dynamics ---------------------
fix 1 all nve
run 10000
Per MPI rank memory allocation (min/avg/max) = 6.597 | 6.597 | 6.597 Mbytes
Step PotEng Lx Ly Lz KinEng TotEng Temp Press Density 
       1   -4496.8886         25.2         25.2         25.2    106.50661    -4390.382          601    55304.138    9.0466912 
     100    -4443.973         25.2         25.2         25.2    53.607237   -4390.3658    302.49718    65012.639    9.0466912 
     200   -4444.0727         25.2         25.2         25.2    53.704619    -4390.368    303.04669    64656.125    9.0466912 
     300   -4444.1597         25.2         25.2         25.2    53.792377   -4390.3674    303.54189    64381.636    9.0466912 
     400   -4440.4766         25.2         25.2         25.2     50.11079   -4390.3658    282.76728    65068.254    9.0466912 
     500   -4447.1295         25.2         25.2         25.2    56.760902   -4390.3686    320.29282    63862.405    9.0466912 
     600   -4439.0326         25.2         25.2         25.2    48.666717   -4390.3658     274.6186    65394.921    9.0466912 
     700   -4448.9379         25.2         25.2         25.2     58.56941   -4390.3685    330.49794    63534.581    9.0466912 
     800   -4446.9069         25.2         25.2         25.2    56.538893   -4390.3681    319.04005     63999.88    9.0466912 
     900   -4444.1617         25.2         25.2         25.2    53.794347   -4390.3673    303.55301    64400.208    9.0466912 
    1000   -4443.2336         25.2         25.2         25.2    52.866351   -4390.3673    298.31648    65086.541    9.0466912 
    1100   -4449.2531         25.2         25.2         25.2     58.88459   -4390.3685    332.27645    63835.052    9.0466912 
    1200   -4442.0729         25.2         25.2         25.2    51.706984   -4390.3659    291.77435    64617.044    9.0466912 
    1300    -4446.992         25.2         25.2         25.2    56.623385   -4390.3686    319.51683      64356.3    9.0466912 
    1400   -4446.3485         25.2         25.2         25.2    55.980634   -4390.3679    315.88988    63960.454    9.0466912 
    1500   -4443.3342         25.2         25.2         25.2     52.96694   -4390.3673    298.88409    64227.864    9.0466912 
    1600   -4444.8443         25.2         25.2         25.2    54.476394   -4390.3679     307.4017    64516.559    9.0466912 
    1700   -4442.6834         25.2         25.2         25.2    52.317357    -4390.366    295.21859    64256.829    9.0466912 
    1800   -4446.2882         25.2         25.2         25.2    55.919164    -4390.369    315.54302    64849.215    9.0466912 
    1900   -4443.3416         25.2         25.2         25.2    52.975468   -4390.3662    298.93221    64357.946    9.0466912 
    2000   -4443.6379         25.2         25.2         25.2    53.270331   -4390.3675    300.59607    64788.679    9.0466912 
    2100   -4441.1888         25.2         25.2         25.2    50.822187   -4390.3666    286.78158    65060.565    9.0466912 
    2200   -4443.7465         25.2         25.2         25.2    53.379585   -4390.3669    301.21257    64165.401    9.0466912 
    2300   -4443.2458         25.2         25.2         25.2    52.878427   -4390.3674    298.38462    64856.036    9.0466912 
    2400   -4442.4919         25.2         25.2         25.2    52.125282   -4390.3667    294.13474    64545.843    9.0466912 
    2500   -4441.8044         25.2         25.2         25.2    51.437431   -4390.3669    290.25331    64912.994    9.0466912 
    2600   -4441.2559         25.2         25.2         25.2    50.889555   -4390.3663    287.16173    65020.958    9.0466912 
    2700   -4449.3014         25.2         25.2         25.2    58.932663   -4390.3688    332.54772    63639.577    9.0466912 
    2800    -4445.243         25.2         25.2         25.2    54.876001    -4390.367    309.65662    64458.168    9.0466912 
    2900   -4445.3213         25.2         25.2         25.2    54.953339    -4390.368    310.09302        64779    9.0466912 
    3000   -4444.7271         25.2         25.2         25.2    54.359721   -4390.3674    306.74333    64011.609    9.0466912 
    3100   -4440.1558         25.2         25.2         25.2    49.789288   -4390.3665    280.95309    65140.041    9.0466912 
    3200   -4444.7467         25.2         25.2         25.2     54.37932   -4390.3673    306.85392    64450.488    9.0466912 
    3300   -4442.0212         25.2         25.2         25.2    51.654951   -4390.3663    291.48074    64967.832    9.0466912 
    3400   -4441.4769         25.2         25.2         25.2    51.110089   -4390.3668    288.40617    64945.379    9.0466912 
    3500   -4443.9121         25.2         25.2         25.2    53.544921   -4390.3671    302.14554    64666.556    9.0466912 
    3600   -4447.6715         25.2         25.2         25.2    57.302993   -4390.3685    323.35175    64163.197    9.0466912 
    3700   -4441.9166         25.2         25.2         25.2    51.550079   -4390.3665    290.88896    64897.179    9.0466912 
    3800   -4443.1898         25.2         25.2         25.2    52.822641   -4390.3672    298.06983      64602.8    9.0466912 
    3900   -4443.7711         25.2         25.2         25.2     53.40437   -4390.3667    301.35243    64100.162    9.0466912 
    4000   -4444.2119         25.2         25.2         25.2    53.844609   -4390.3673    303.83663    64863.176    9.0466912 
    4100   -4446.6533         25.2         25.2         25.2    56.285666   -4390.3677    317.61113    63959.714    9.0466912 
    4200   -4442.8831         25.2         25.2         25.2    52.516233   -4390.3669    296.34082    64656.822    9.0466912 
    4300   -4445.1696         25.2         25.2         25.2    54.801782   -4390.3678    309.23781    64451.796    9.0466912 
    4400   -4440.3099         25.2         25.2         25.2    49.943875    -4390.366    281.82541    65045.653    9.0466912 
    4500   -4438.4971         25.2         25.2         25.2    48.130965   -4390.3661    271.59544    65159.656    9.0466912 
    4600   -4442.9691         25.2         25.2         25.2    52.601917   -4390.3672    296.82432    64485.653    9.0466912 
    4700   -4442.4073         25.2         25.2         25.2     52.04112   -4390.3662    293.65983    64405.297    9.0466912 
    4800   -4442.5419         25.2         25.2         25.2    52.174619   -4390.3673    294.41314    64991.144    9.0466912 
    4900   -4443.7315         25.2         25.2         25.2    53.364456    -4390.367     301.1272    63874.278    9.0466912 
    5000   -4443.3696         25.2         25.2         25.2     53.00207   -4390.3675    299.08232    64314.562    9.0466912 
    5100   -4442.4552         25.2         25.2         25.2    52.088658   -4390.3665    293.92808     64540.36    9.0466912 
    5200   -4445.0585         25.2         25.2         25.2    54.691004   -4390.3675     308.6127    64248.717    9.0466912 
    5300   -4442.8395         25.2         25.2         25.2    52.472396   -4390.3671    296.09345     64893.84    9.0466912 
    5400   -4449.1417         25.2         25.2         25.2    58.773262   -4390.3685    331.64824    63610.928    9.0466912 
[...]
    8000   -4360.5181         25.2         25.2         25.2    129.66833   -4230.8498    731.69792    86303.624    9.0466912 
    8100   -4362.0286         25.2         25.2         25.2    131.17814   -4230.8505    740.21752    86285.982    9.0466912 
    8200   -4359.0231         25.2         25.2         25.2    128.17335   -4230.8498    723.26197    86300.219    9.0466912 
    8300   -4358.7942         25.2         25.2         25.2    127.94424     -4230.85    721.96918    86763.007    9.0466912 
    8400   -4360.7006         25.2         25.2         25.2    129.85007   -4230.8505    732.72344    85919.578    9.0466912 
    8500   -4358.5747         25.2         25.2         25.2    127.72558   -4230.8491    720.73528    85953.588    9.0466912 
    8600   -4367.4469         25.2         25.2         25.2    136.59454   -4230.8523    770.78145    85405.049    9.0466912 
    8700   -4359.9308         25.2         25.2         25.2    129.08101   -4230.8498    728.38376    86313.777    9.0466912 
    8800   -4363.0289         25.2         25.2         25.2    132.17774   -4230.8512    745.85813    85760.961    9.0466912 
    8900   -4360.1512         25.2         25.2         25.2    129.30175   -4230.8495    729.62936    85634.196    9.0466912 
    9000   -4360.1606         25.2         25.2         25.2    129.31045   -4230.8501    729.67846    85835.528    9.0466912 
    9100   -4359.1815         25.2         25.2         25.2    128.33172   -4230.8497    724.15567    86493.798    9.0466912 
    9200   -4361.4853         25.2         25.2         25.2    130.63478   -4230.8505    737.15143    86431.491    9.0466912 
    9300   -4359.4501         25.2         25.2         25.2    128.59997   -4230.8501    725.66931    86416.622    9.0466912 
    9400   -4359.4892         25.2         25.2         25.2    128.63935   -4230.8499    725.89158    86366.509    9.0466912 
    9500   -4360.1641         25.2         25.2         25.2     129.3139   -4230.8502    729.69793    86441.542    9.0466912 
    9600   -4358.4648         25.2         25.2         25.2    127.61535   -4230.8495    720.11329    86149.512    9.0466912 
    9700    -4359.501         25.2         25.2         25.2    128.65062   -4230.8504    725.95516    86310.628    9.0466912 
    9800   -4360.6876         25.2         25.2         25.2    129.83724   -4230.8504    732.65106    86404.248    9.0466912 
    9900    -4364.601         25.2         25.2         25.2    133.74979   -4230.8512    754.72897    86112.841    9.0466912 
   10000   -4359.5541         25.2         25.2         25.2    128.70447   -4230.8496    726.25902    86208.992    9.0466912 
   10001   -4359.3974         25.2         25.2         25.2    128.54784   -4230.8496    725.37515    86219.216    9.0466912 
Loop time of 30.7485 on 1 procs for 10000 steps with 1372 atoms

Performance: 28.099 ns/day, 0.854 hours/ns, 325.219 timesteps/s
99.7% CPU use with 1 MPI tasks x 1 OpenMP threads

MPI task timing breakdown:
Section |  min time  |  avg time  |  max time  |%varavg| %total
---------------------------------------------------------------
Pair    | 30.418     | 30.418     | 30.418     |   0.0 | 98.92
Bond    | 0.00092771 | 0.00092771 | 0.00092771 |   0.0 |  0.00
Neigh   | 0          | 0          | 0          |   0.0 |  0.00
Comm    | 0.17351    | 0.17351    | 0.17351    |   0.0 |  0.56
Output  | 0.0026266  | 0.0026266  | 0.0026266  |   0.0 |  0.01
Modify  | 0.092797   | 0.092797   | 0.092797   |   0.0 |  0.30
Other   |            | 0.06099    |            |       |  0.20

Nlocal:    1372 ave 1372 max 1372 min
Histogram: 1 0 0 0 0 0 0 0 0 0
Nghost:    4712 ave 4712 max 4712 min
Histogram: 1 0 0 0 0 0 0 0 0 0
Neighs:    120736 ave 120736 max 120736 min
Histogram: 1 0 0 0 0 0 0 0 0 0

Total # of neighbors = 120736
Ave neighs/atom = 88
Ave special neighs/atom = 0
Neighbor list builds = 0
Dangerous builds = 0
unfix 1
variable thermofac     equal 100.0
variable tempdamp equal ${thermofac}*${timestep1}
variable tempdamp equal 100*${timestep1}
variable tempdamp equal 100*0.001
variable presfac     equal 1000.0
variable presdamp equal ${presfac}*${timestep1}
variable presdamp equal 1000*${timestep1}
variable presdamp equal 1000*0.001

#
#-----------NPT ------------------------
#
fix     2 all npt temp ${tempset} ${tempset} ${tempdamp} iso ${presset} ${presset} ${presdamp}
fix     2 all npt temp 1501.0 ${tempset} ${tempdamp} iso ${presset} ${presset} ${presdamp}
fix     2 all npt temp 1501.0 1501.0 ${tempdamp} iso ${presset} ${presset} ${presdamp}
fix     2 all npt temp 1501.0 1501.0 0.1 iso ${presset} ${presset} ${presdamp}
fix     2 all npt temp 1501.0 1501.0 0.1 iso 1 ${presset} ${presdamp}
fix     2 all npt temp 1501.0 1501.0 0.1 iso 1 1 ${presdamp}
fix     2 all npt temp 1501.0 1501.0 0.1 iso 1 1 1
run     10000
Per MPI rank memory allocation (min/avg/max) = 6.597 | 6.597 | 6.597 Mbytes
Step PotEng Lx Ly Lz KinEng TotEng Temp Press Density 
   10001   -4359.3974         25.2         25.2         25.2    128.54784   -4230.8496    725.37515    86219.216    9.0466912 
   10100   -4363.4073    25.628297    25.628297    25.628297    133.12282   -4230.2844    751.19105    10244.529    8.6006676 
   10200   -4337.4548    25.870754    25.870754    25.870754    147.05827   -4190.3965    829.82663   -23343.377    8.3611137 
   10300   -4313.7329    25.756917    25.756917    25.756917    167.50024   -4146.2326    945.17741    1509.7981    8.4724641 
   10400   -4289.6438    25.696722    25.696722    25.696722    195.58322   -4094.0605    1103.6453    15905.795    8.5321442 
   10500   -4259.1116    25.825465    25.825465    25.825465    218.02851   -4041.0831    1230.3005    2218.1421    8.4051783 
   10600   -4223.4499    25.935813    25.935813    25.935813    236.70841   -3986.7415    1335.7082   -7753.5607    8.2983508 
   10700   -4196.3393    25.925094    25.925094    25.925094    259.16205   -3937.1773    1462.4106   -631.41082    8.3086479 
   10800   -4174.8053      25.9144      25.9144      25.9144    277.10609   -3897.6992     1563.666    4593.2215    8.3189384 
   10900   -4157.4703    25.968668    25.968668    25.968668    277.91949   -3879.5508    1568.2558   -133.14318    8.2668936 
   11000   -4148.8489    26.011717    26.011717    26.011717    269.93557   -3878.9134    1523.2039   -4770.0725    8.2259174 
   11100   -4153.1226    25.987462    25.987462    25.987462    263.61527   -3889.5073    1487.5394   -2831.8335    8.2489716 
   11200    -4169.664    25.935661    25.935661    25.935661    267.40542   -3902.2586    1508.9266    2081.2241    8.2984972 
   11300   -4169.4412     25.92846     25.92846     25.92846    255.07152   -3914.3697    1439.3283    3863.2479     8.305413 
   11400   -4180.5391    25.954245    25.954245    25.954245    260.93717    -3919.602    1472.4273   -1360.0864    8.2806837 
   11500   -4170.5124    25.951968    25.951968    25.951968    253.43478   -3917.0776    1430.0925   -27.828036    8.2828636 
   11600    -4178.278    25.937674    25.937674    25.937674    273.87427   -3904.4038    1545.4293     1214.381    8.2965646 
   11700   -4156.3274    25.941274    25.941274    25.941274    256.98936    -3899.338    1450.1504     3338.386    8.2931113 
   11800    -4166.521    25.973837    25.973837    25.973837    273.04118   -3893.4799    1540.7283   -1564.9627    8.2619595 
   11900   -4163.0867    25.974053    25.974053    25.974053    264.37014   -3898.7166     1491.799   -3267.8443    8.2617531 
   12000   -4164.9001    25.941437    25.941437    25.941437    261.56569   -3903.3344    1475.9739    1997.8518    8.2929551 
   12100   -4161.7214    25.937248    25.937248    25.937248     254.2349   -3907.4865    1434.6074    2719.0906    8.2969733 
   12200    -4177.777    25.954975    25.954975    25.954975    270.91856   -3906.8584    1528.7507   -1744.8566    8.2799849 
   12300   -4174.6649    25.948891    25.948891    25.948891    263.32828   -3911.3366    1485.9199    5.8067499      8.28581 
   12400   -4176.5944    25.935779    25.935779    25.935779    266.30756   -3910.2868    1502.7315    873.57698    8.2983835 
   12500   -4177.6108    25.939684    25.939684    25.939684    268.67349   -3908.9373    1516.0821     1412.411    8.2946367 
   12600   -4163.2576    25.957017    25.957017    25.957017    254.01681   -3909.2408    1433.3768   -722.41587     8.278031 
   12700   -4172.2236    25.953621    25.953621    25.953621    266.83698   -3905.3866     1505.719   -357.49908     8.281281 
   12800   -4170.3604    25.941535    25.941535    25.941535    267.06185   -3903.2986    1506.9879    1000.0509    8.2928611 
   12900   -4167.6442    25.948766    25.948766    25.948766    265.95331   -3901.6909    1500.7326    783.21074    8.2859304 
   13000   -4164.6636    25.962778    25.962778    25.962778    261.97356     -3902.69    1478.2754   -175.50214    8.2725219 
   13100    -4166.439    25.960307    25.960307    25.960307    261.80088   -3904.6381    1477.3011    -1409.952    8.2748844 
   13200   -4167.2451    25.941852    25.941852    25.941852     262.3227   -3904.9224    1480.2456    1660.1137    8.2925569 
   13300   -4172.1422    25.948287    25.948287    25.948287    269.43717   -3902.7051    1520.3914    86.219492    8.2863891 
   13400   -4172.3244    25.962587    25.962587    25.962587      264.715   -3907.6094     1493.745   -3137.8542    8.2727041 
   13500   -4174.5672    25.949626    25.949626    25.949626    265.31067   -3909.2566    1497.1062    239.14491    8.2851064 
   13600   -4173.9314    25.939178    25.939178    25.939178    267.78554   -3906.1459    1511.0715    1127.6745    8.2951215 
   13700   -4169.9983    25.950088    25.950088    25.950088    266.63287   -3903.3655    1504.5672    251.03475    8.2846634 
   13800   -4161.5639    25.969404    25.969404    25.969404    261.98286    -3899.581    1478.3279   -988.41111     8.266191 
   13900   -4164.5141    25.975975    25.975975    25.975975    272.10485   -3892.4093    1535.4447   -2650.1842    8.2599192 
   14000   -4170.2443    25.949767    25.949767    25.949767    272.44067   -3897.8036    1537.3397    192.80423    8.2849712 
   14100   -4176.4044    25.927503    25.927503    25.927503    262.30559   -3914.0988     1480.149    2628.4775    8.3063321 
   14200   -4177.9027    25.935369    25.935369    25.935369    258.08904   -3919.8137    1456.3557    764.08042    8.2987774 
   14300    -4174.436    25.951145    25.951145    25.951145    261.57474   -3912.8612     1476.025     -613.433    8.2836515 
   14400   -4173.1691    25.959516    25.959516    25.959516    271.22335   -3901.9458    1530.4706   -1400.9258    8.2756404 
   14500   -4165.0685    25.958652    25.958652    25.958652    269.68083   -3895.3877    1521.7664   -1087.4147    8.2764666 
   14600   -4165.8008    25.952698    25.952698    25.952698    268.60242   -3897.1984    1515.6811    467.11344    8.2821642 
   14700   -4165.4151    25.950963    25.950963    25.950963    261.16655   -3904.2485    1473.7216    482.75962    8.2838254 
   14800     -4178.53    25.951754    25.951754    25.951754    270.01787   -3908.5122    1523.6682   -1287.5275    8.2830682 
   14900     -4172.15    25.942044    25.942044    25.942044    256.39652   -3915.7535    1446.8051    1106.5006    8.2923729 
   15000   -4181.2861    25.941985    25.941985    25.941985    266.18219   -3915.1039    1502.0241   -484.78816    8.2924288 
   15100   -4170.3888    25.940861    25.940861    25.940861    262.99103   -3907.3978    1484.0169    2144.1865    8.2935073 
   15200   -4154.7821    25.954629    25.954629    25.954629    261.35504   -3893.4271    1474.7852    1505.7835    8.2803158 
   15300    -4154.297    25.979457    25.979457    25.979457    263.13876   -3891.1582    1484.8505   -1063.1595    8.2565984 
   15400   -4169.0247    25.979467    25.979467    25.979467    272.35922   -3896.6655    1536.8801   -3820.3856    8.2565891 
   15500   -4173.1646    25.933235    25.933235    25.933235    266.48906   -3906.6755    1503.7557    2462.7326    8.3008262 
   15600   -4174.2262    25.915444    25.915444    25.915444    261.60426   -3912.6219    1476.1916    3446.3007    8.3179334 
   15700   -4173.8417     25.95229     25.95229     25.95229    263.08453   -3910.7572    1484.5445   -1539.6598    8.2825547 
   15800   -4169.6091    25.979042    25.979042    25.979042    266.26597   -3903.3431    1502.4969   -3258.4309     8.256994 
   15900   -4161.5714    25.959828    25.959828    25.959828    269.37055   -3892.2009    1520.0155    1066.8728    8.2753417 
   16000   -4162.2442    25.948555    25.948555    25.948555    278.34029   -3883.9039    1570.6303    2961.7415     8.286132 
   16100   -4164.6169     25.97603     25.97603     25.97603    261.00163   -3903.6152     1472.791   -2387.6172    8.2598669 
   16200   -4175.1879    25.975534    25.975534    25.975534    270.06676   -3905.1211    1523.9441    -5113.377      8.26034 
   16300   -4174.5139    25.925019    25.925019    25.925019    270.57619   -3903.9378    1526.8188    4370.9985    8.3087205 
   16400   -4179.2722    25.922569    25.922569    25.922569    269.40271   -3909.8695     1520.197    2224.7857     8.311076 
   16500    -4182.978    25.967094    25.967094    25.967094    269.71286   -3913.2652    1521.9471   -4038.6787    8.2683976 
   16600   -4175.4509    25.969715    25.969715    25.969715    259.56054   -3915.8904    1464.6592   -3580.1129    8.2658937 
   16700    -4171.311    25.923043    25.923043    25.923043    265.90205    -3905.409    1500.4433    3977.9663    8.3106205 
   16800   -4172.8442    25.923977    25.923977    25.923977    273.47965   -3899.3646    1543.2025     6044.458    8.3097224 
   16900   -4163.8021    25.997363    25.997363    25.997363     260.7634   -3903.0387    1471.4467   -5281.3954    8.2395501 
   17000   -4169.7259    26.000391    26.000391    26.000391    264.79208   -3904.9338    1494.1799   -6889.2674    8.2366714 
   17100   -4176.2093    25.907138    25.907138    25.907138    263.15567   -3913.0536    1484.9459     6813.766    8.3259366 
   17200   -4188.2677    25.894403    25.894403    25.894403    269.26333   -3919.0044    1519.4105    6427.0654    8.3382263 
   17300   -4185.6607    25.968205    25.968205    25.968205    260.19758   -3925.4632    1468.2539   -4782.8313    8.2673359 
   17400   -4178.3703     25.98822     25.98822     25.98822    261.68935    -3916.681    1476.6717   -6343.1097    8.2482496 
   17500   -4175.3023    25.928782    25.928782    25.928782    271.53881   -3903.7634    1532.2507    2668.3902    8.3051036 
   17600   -4165.7904    25.912439    25.912439    25.912439    264.29192   -3901.4984    1491.3576    8053.1039    8.3208273 
   17700   -4169.0704    25.992054    25.992054    25.992054     269.0534    -3900.017    1518.2259   -4789.0671    8.2445998 
   17800   -4168.2853    26.011041    26.011041    26.011041    267.90559   -3900.3798     1511.749   -8038.6171    8.2265583 
   17900   -4174.2464    25.924168    25.924168    25.924168     271.4789   -3902.7675    1531.9126     3705.379    8.3095385 
   18000   -4182.0738    25.888637    25.888637    25.888637    269.85133   -3912.2224    1522.7285     8061.687    8.3437987 
   18100   -4185.5764    25.959578    25.959578    25.959578    263.85552   -3921.7209    1488.8951   -3595.4225    8.2755811 
   18200   -4172.6212    25.985042    25.985042    25.985042    252.30183   -3920.3194    1423.6994   -6715.7475    8.2512764 
   18300   -4170.4594    25.924673    25.924673    25.924673    262.25778   -3908.2016    1479.8792     3595.247    8.3090528 
   18400   -4179.3358    25.909497    25.909497    25.909497    277.34945   -3901.9864    1565.0392    5038.1427    8.3236624 
   18500   -4169.7765    25.969869    25.969869    25.969869    263.18222   -3906.5943    1485.0957   -2481.6272    8.2657475 
   18600   -4165.6186    25.990431    25.990431    25.990431    256.11718   -3909.5014    1445.2288   -5896.3479    8.2461448 
   18700   -4174.6561    25.927035    25.927035    25.927035     265.3573   -3909.2988    1497.3694     3799.359    8.3067827 
   18800   -4173.1263     25.90697     25.90697     25.90697    268.90384   -3904.2225    1517.3819    5552.4941    8.3260983 
   18900   -4168.4796     25.96905     25.96905     25.96905    271.97087   -3896.5087    1534.6887   -835.69539     8.266529 
   19000   -4158.1534    26.011294    26.011294    26.011294     265.6494    -3892.504    1499.0177   -6249.3107     8.226318 
   19100   -4151.0041    25.973177    25.973177    25.973177    266.96712    -3884.037    1506.4533    590.84788    8.2625893 
   19200   -4155.8188    25.942614    25.942614    25.942614    274.68288   -3881.1359    1549.9922    5426.2755    8.2918264 
   19300   -4171.8103     25.97024     25.97024     25.97024    272.97014   -3898.8401    1540.3274   -2107.8399    8.2653929 
   19400   -4166.7755    25.969129    25.969129    25.969129    258.95425   -3907.8213    1461.2379    -2045.304    8.2664537 
   19500   -4173.5773    25.932691    25.932691    25.932691    265.27575   -3908.3015    1496.9092    2556.5662    8.3013482 
   19600   -4176.0256    25.931987    25.931987    25.931987    271.64695   -3904.3787    1532.8609    1473.1002    8.3020239 
   19700   -4168.5037    25.961938    25.961938    25.961938    267.95132   -3900.5523     1512.007    96.732657    8.2733245 
   19800   -4169.8411    25.981016    25.981016    25.981016    272.68879   -3897.1523    1538.7398    -3871.559    8.2551127 
   19900   -4170.9226    25.952416    25.952416    25.952416    265.37568   -3905.5469    1497.4731    29.592073    8.2824341 
   20000   -4178.4443    25.922116    25.922116    25.922116    262.77716   -3915.6672      1482.81    3189.4912    8.3115123 
   20001   -4178.4018    25.921962    25.921962    25.921962     262.6474   -3915.7544    1482.0779    3220.7494      8.31166 
Loop time of 31.9388 on 1 procs for 10000 steps with 1372 atoms

Performance: 27.052 ns/day, 0.887 hours/ns, 313.099 timesteps/s
99.7% CPU use with 1 MPI tasks x 1 OpenMP threads

MPI task timing breakdown:
Section |  min time  |  avg time  |  max time  |%varavg| %total
---------------------------------------------------------------
Pair    | 30.678     | 30.678     | 30.678     |   0.0 | 96.05
Bond    | 0.0011533  | 0.0011533  | 0.0011533  |   0.0 |  0.00
Neigh   | 0.59664    | 0.59664    | 0.59664    |   0.0 |  1.87
Comm    | 0.18644    | 0.18644    | 0.18644    |   0.0 |  0.58
Output  | 0.0027456  | 0.0027456  | 0.0027456  |   0.0 |  0.01
Modify  | 0.40348    | 0.40348    | 0.40348    |   0.0 |  1.26
Other   |            | 0.07078    |            |       |  0.22

Nlocal:    1372 ave 1372 max 1372 min
Histogram: 1 0 0 0 0 0 0 0 0 0
Nghost:    4702 ave 4702 max 4702 min
Histogram: 1 0 0 0 0 0 0 0 0 0
Neighs:    115311 ave 115311 max 115311 min
Histogram: 1 0 0 0 0 0 0 0 0 0

Total # of neighbors = 115311
Ave neighs/atom = 84.0459
Ave special neighs/atom = 0
Neighbor list builds = 167
Dangerous builds = 0

variable natoms equal "count(all)"
variable teng equal "pe"
variable length equal "lx"
variable latconst equal ${length}/${unit_cells}
variable latconst equal 25.9219622310997/${unit_cells}
variable latconst equal 25.9219622310997/7
variable ecoh equal "v_teng/v_natoms"
variable T equal "temp"

print ""

print "-------------------------------"
-------------------------------
print "Total energy (eV) = ${teng};"
Total energy (eV) = -4178.40182029164;
print "Number of atoms = ${natoms};"
Number of atoms = 1372;
print "Lattice constant (Angstoms) = ${length};"
Lattice constant (Angstoms) = 25.9219622310997;
print "Cohesive energy (eV) = ${ecoh};"
Cohesive energy (eV) = -3.04548237630586;

print "All done!"
All done!
print "-------------------------------"
-------------------------------
print ""

print "${latconst}" file lat_const_finite.txt
3.70313746158567
print "${T}" file fin_temp.txt
1482.07786282049
Total wall time: 0:01:02
