LAMMPS (30 Apr 2019)
OMP_NUM_THREADS environment is not set. Defaulting to 1 thread. (../comm.cpp:88)
  using 1 OpenMP thread(s) per MPI task
OMP_NUM_THREADS environment is not set. Defaulting to 1 thread. (../comm.cpp:88)
  using 1 OpenMP thread(s) per MPI task
Lattice spacing in x,y,z = 3.64755 3.64755 3.64755
Created orthogonal box = (0 0 0) to (3.64755 3.64755 3.64755)
  1 by 1 by 1 MPI processor grid
Created 4 atoms
  create_atoms CPU = 0.00116761 secs
Replicating atoms ...
  orthogonal box = (0 0 0) to (14.5902 14.5902 14.5902)
  1 by 1 by 1 MPI processor grid
  256 atoms
Finding 1-2 1-3 1-4 neighbors ...
  special bond factors lj:   0          0          0         
  special bond factors coul: 0          0          0         
  0 = max # of 1-2 neighbors
  0 = max # of 1-3 neighbors
  0 = max # of 1-4 neighbors
  1 = max # of special neighbors
  special bonds CPU = 6.5207e-05 secs
  replicate CPU = 0.00035681 secs
WARNING: Using 'neigh_modify every 1 delay 0 check yes' setting during minimization (../min.cpp:168)
Neighbor list info ...
  update every 1 steps, delay 0 steps, check yes
  max neighbors/atom: 2000, page size: 100000
  master list distance cutoff = 8
  ghost atom cutoff = 8
  binsize = 4, bins = 4 4 4
  1 neighbor lists, perpetual/occasional/extra = 1 0 0
  (1) pair eam/fs, perpetual
      attributes: half, newton on
      pair build: half/bin/newton
      stencil: half/bin/3d/newton
      bin: standard
Setting up cg style minimization ...
  Unit style    : metal
  Current step  : 0
Per MPI rank memory allocation (min/avg/max) = 7.151 | 7.151 | 7.151 Mbytes
Step Temp E_pair E_mol TotEng Press 
       0            0   -840.41035            0   -840.41035   -9998.1358 
       1            0   -840.41035            0   -840.41035   -9998.1358 
Loop time of 0.00187847 on 1 procs for 1 steps with 256 atoms

99.7% CPU use with 1 MPI tasks x 1 OpenMP threads

Minimization stats:
  Stopping criterion = energy tolerance
  Energy initial, next-to-last, final = 
        -840.410350314     -840.410350314     -840.410350314
  Force two-norm initial, final = 8.14358e-14 7.73583e-14
  Force max component initial, final = 7.93116e-15 8.72826e-15
  Final line search alpha, max atom move = 1 8.72826e-15
  Iterations, force evaluations = 1 2

MPI task timing breakdown:
Section |  min time  |  avg time  |  max time  |%varavg| %total
---------------------------------------------------------------
Pair    | 0.0018335  | 0.0018335  | 0.0018335  |   0.0 | 97.61
Bond    | 1.72e-07   | 1.72e-07   | 1.72e-07   |   0.0 |  0.01
Neigh   | 0          | 0          | 0          |   0.0 |  0.00
Comm    | 2.0743e-05 | 2.0743e-05 | 2.0743e-05 |   0.0 |  1.10
Output  | 0          | 0          | 0          |   0.0 |  0.00
Modify  | 0          | 0          | 0          |   0.0 |  0.00
Other   |            | 2.405e-05  |            |       |  1.28

Nlocal:    256 ave 256 max 256 min
Histogram: 1 0 0 0 0 0 0 0 0 0
Nghost:    2201 ave 2201 max 2201 min
Histogram: 1 0 0 0 0 0 0 0 0 0
Neighs:    22528 ave 22528 max 22528 min
Histogram: 1 0 0 0 0 0 0 0 0 0

Total # of neighbors = 22528
Ave neighs/atom = 88
Ave special neighs/atom = 0
Neighbor list builds = 0
Dangerous builds = 0
Setting up Verlet run ...
  Unit style    : metal
  Current step  : 1
  Time step     : 0.001
Per MPI rank memory allocation (min/avg/max) = 6.026 | 6.026 | 6.026 Mbytes
Step Lx PotEng KinEng TotEng Temp Press Density Enthalpy 
       1    14.590196   -840.41035    9.8884011   -830.52195          300   -6597.4866    8.6974893   -843.31139 
     100    14.590196   -835.60489    5.0842184   -830.52068    154.24794   -2963.8238    8.6974893   -836.26614 
     200    14.590196   -835.05082    4.5303159    -830.5205    137.44333   -3455.5856    8.6974893   -837.21926 
     300    14.590196   -836.08474    5.5638325   -830.52091    168.79875   -3909.9492    8.6974893   -838.10047 
     400    14.590196   -834.92201    4.4015028   -830.52051    133.53532   -3274.3823    8.6974893     -836.868 
     500    14.590196   -836.30245    5.7815674   -830.52089    175.40452   -3751.3951    8.6974893   -837.79308 
     600    14.590196   -835.37079    4.8501598   -830.52063    147.14694   -3488.7891    8.6974893   -837.28376 
     700    14.590196   -835.51147    4.9908411   -830.52063    151.41501   -3950.4157    8.6974893   -838.17864 
     800    14.590196   -836.45556    5.9345396   -830.52102    180.04548   -3955.5093    8.6974893    -838.1889 
     900    14.590196     -834.945    4.4245955    -830.5204    134.23592   -3120.9956    8.6974893   -836.57055 
    1000    14.590196   -836.09697    5.5761774    -830.5208    169.17328   -4036.7553    8.6974893   -838.34618 
    1001    14.590196   -836.16282    5.6419948   -830.52083    171.17008   -4043.6584    8.6974893   -838.35959 
Loop time of 0.594031 on 1 procs for 1000 steps with 256 atoms

Performance: 145.447 ns/day, 0.165 hours/ns, 1683.414 timesteps/s
99.7% CPU use with 1 MPI tasks x 1 OpenMP threads

MPI task timing breakdown:
Section |  min time  |  avg time  |  max time  |%varavg| %total
---------------------------------------------------------------
Pair    | 0.58285    | 0.58285    | 0.58285    |   0.0 | 98.12
Bond    | 4.8379e-05 | 4.8379e-05 | 4.8379e-05 |   0.0 |  0.01
Neigh   | 0          | 0          | 0          |   0.0 |  0.00
Comm    | 0.0068856  | 0.0068856  | 0.0068856  |   0.0 |  1.16
Output  | 0.0001552  | 0.0001552  | 0.0001552  |   0.0 |  0.03
Modify  | 0.0021707  | 0.0021707  | 0.0021707  |   0.0 |  0.37
Other   |            | 0.001921   |            |       |  0.32

Nlocal:    256 ave 256 max 256 min
Histogram: 1 0 0 0 0 0 0 0 0 0
Nghost:    2201 ave 2201 max 2201 min
Histogram: 1 0 0 0 0 0 0 0 0 0
Neighs:    22528 ave 22528 max 22528 min
Histogram: 1 0 0 0 0 0 0 0 0 0

Total # of neighbors = 22528
Ave neighs/atom = 88
Ave special neighs/atom = 0
Neighbor list builds = 0
Dangerous builds = 0
Setting up Verlet run ...
  Unit style    : metal
  Current step  : 1001
  Time step     : 0.001
Per MPI rank memory allocation (min/avg/max) = 6.026 | 6.026 | 6.026 Mbytes
Step Lx PotEng KinEng TotEng Temp Press Density Enthalpy 
    1001    14.590196   -836.16282    5.6419948   -830.52083    171.17008   -4043.6584    8.6974893   -838.35959 
    1100    14.566894   -835.87427    6.5294956   -829.34477    198.09559     4044.706    8.7392943   -821.54149 
    1200    14.600512   -834.07484    6.6205891   -827.45425    200.85924   -5097.2064    8.6790651   -837.35632 
    1300     14.57977   -833.48103    8.3742051   -825.10683    254.06145    3256.2946    8.7161606   -818.80792 
    1400    14.596865   -831.13714    8.5402358    -822.5969    259.09859    167.62155    8.6855729   -822.27152 
    1500    14.612739   -829.18814    8.6981968   -820.48994     263.8909   -2847.3233    8.6572974   -826.03519 
    1600     14.59074   -828.53568    9.4057769    -819.1299    285.35787    6237.2104    8.6965156   -807.03751 
    1700    14.616872   -829.74067    10.856441   -818.88422    329.36896   -4424.7695    8.6499565   -827.50892 
    1800    14.602472   -831.74829    11.486378   -820.26191    348.48035    243.17401     8.675572   -819.78932 
    1900    14.601224   -831.59399    10.401137   -821.19285    315.55568   -871.58553    8.6777956   -822.88628 
    2000    14.604531    -830.3646    8.7712316   -821.59337    266.10667   -1286.8633    8.6719019   -824.09536 
    2001    14.605073   -830.41267    8.8218733   -821.59079    267.64307   -1480.6052    8.6709367   -824.46978 
Loop time of 0.62914 on 1 procs for 1000 steps with 256 atoms

Performance: 137.330 ns/day, 0.175 hours/ns, 1589.470 timesteps/s
99.6% CPU use with 1 MPI tasks x 1 OpenMP threads

MPI task timing breakdown:
Section |  min time  |  avg time  |  max time  |%varavg| %total
---------------------------------------------------------------
Pair    | 0.61162    | 0.61162    | 0.61162    |   0.0 | 97.22
Bond    | 4.5638e-05 | 4.5638e-05 | 4.5638e-05 |   0.0 |  0.01
Neigh   | 0          | 0          | 0          |   0.0 |  0.00
Comm    | 0.0069159  | 0.0069159  | 0.0069159  |   0.0 |  1.10
Output  | 0.0001602  | 0.0001602  | 0.0001602  |   0.0 |  0.03
Modify  | 0.0084682  | 0.0084682  | 0.0084682  |   0.0 |  1.35
Other   |            | 0.001929   |            |       |  0.31

Nlocal:    256 ave 256 max 256 min
Histogram: 1 0 0 0 0 0 0 0 0 0
Nghost:    2201 ave 2201 max 2201 min
Histogram: 1 0 0 0 0 0 0 0 0 0
Neighs:    22563 ave 22563 max 22563 min
Histogram: 1 0 0 0 0 0 0 0 0 0

Total # of neighbors = 22563
Ave neighs/atom = 88.1367
Ave special neighs/atom = 0
Neighbor list builds = 0
Dangerous builds = 0
Setting up Verlet run ...
  Unit style    : metal
  Current step  : 2001
  Time step     : 0.001
Per MPI rank memory allocation (min/avg/max) = 6.026 | 6.026 | 6.026 Mbytes
Step Lx PotEng KinEng TotEng Temp Press Density Enthalpy 
    2001    14.605073   -830.41267    8.8218733   -821.59079    267.64307   -1480.6052    8.6709367   -824.46978 
    2100    14.527764   -830.63612    9.4950536   -821.14107     288.0664    22183.884    8.8101024   -778.68659 
    2200    14.593883   -830.26017    10.057011   -820.20316     305.1154     2763.409    8.6908976   -814.84214 
    2300    14.564354   -830.68348    11.004164   -819.67931    333.85066    10306.048    8.7438676   -799.80668 
    2400    14.557868   -828.64428    8.3311102   -820.31317    252.75401    15323.544    8.7555601   -790.80501 
    2500     14.57856   -830.20822    9.6032517   -820.60496    291.34897    6416.5281    8.7183303   -808.19605 
    2600     14.56308   -832.09838    11.429449   -820.66893    346.75319    10218.819    8.7461626   -800.96967 
    2700     14.56817   -830.09139    9.1122479   -820.97914    276.45262    10345.291    8.7369977   -801.01515 
    2800    14.564476   -830.83077    9.9653427   -820.86543     302.3343    10713.099    8.7436474   -800.20738 
    2900    14.581012   -831.56669     11.32688   -820.23981    343.64139    5498.0703    8.7139339   -809.60174 
    3000     14.55026   -828.98987    9.1412817   -819.84858    277.33346    16116.084    8.7693004   -788.86287 
    3001    14.550416   -828.95789    9.1042936    -819.8536     276.2113    16094.505    8.7690183   -788.90838 
Loop time of 0.625906 on 1 procs for 1000 steps with 256 atoms

Performance: 138.040 ns/day, 0.174 hours/ns, 1597.684 timesteps/s
99.7% CPU use with 1 MPI tasks x 1 OpenMP threads

MPI task timing breakdown:
Section |  min time  |  avg time  |  max time  |%varavg| %total
---------------------------------------------------------------
Pair    | 0.60822    | 0.60822    | 0.60822    |   0.0 | 97.17
Bond    | 6.4834e-05 | 6.4834e-05 | 6.4834e-05 |   0.0 |  0.01
Neigh   | 0          | 0          | 0          |   0.0 |  0.00
Comm    | 0.0069674  | 0.0069674  | 0.0069674  |   0.0 |  1.11
Output  | 0.00015171 | 0.00015171 | 0.00015171 |   0.0 |  0.02
Modify  | 0.0085559  | 0.0085559  | 0.0085559  |   0.0 |  1.37
Other   |            | 0.001948   |            |       |  0.31

Nlocal:    256 ave 256 max 256 min
Histogram: 1 0 0 0 0 0 0 0 0 0
Nghost:    2201 ave 2201 max 2201 min
Histogram: 1 0 0 0 0 0 0 0 0 0
Neighs:    22666 ave 22666 max 22666 min
Histogram: 1 0 0 0 0 0 0 0 0 0

Total # of neighbors = 22666
Ave neighs/atom = 88.5391
Ave special neighs/atom = 0
Neighbor list builds = 0
Dangerous builds = 0
Setting up Verlet run ...
  Unit style    : metal
  Current step  : 3001
  Time step     : 0.001
Per MPI rank memory allocation (min/avg/max) = 6.026 | 6.026 | 6.026 Mbytes
Step Lx PotEng KinEng TotEng Temp Press Density Enthalpy 
    3001    14.550416   -828.95789    9.1042936    -819.8536     276.2113    16094.505    8.7690183   -788.90838 
    3100    14.723986   -829.25777     10.25883   -818.99894    311.23829     -33432.8    8.4625455   -885.60881 
    3200    14.573264   -829.93861    10.532676   -819.40593    319.54638    9437.7334      8.72784   -801.17421 
    3300    14.673878   -828.65829    8.8399043   -819.81839     268.1901   -19745.708     8.549536   -858.75848 
    3400    14.624695   -831.17557    10.255063   -820.92051      311.124   -7355.1546    8.6360823   -835.28009 
    3500    14.628973   -829.53018    8.2278248   -821.30235    249.62048   -7148.8851    8.6285091   -835.27149 
    3600    14.649736   -829.36223    8.7971168   -820.56512    266.89199   -13273.945    8.5918738   -846.61339 
    3700    14.618089    -832.5958    12.567558   -820.02824    381.28179   -5607.3716    8.6477968   -830.96077 
    3800    14.666054   -829.47381    9.5105753   -819.96324     288.5373   -16961.104    8.5632254   -853.35841 
    3900    14.605528   -830.55084    10.599669   -819.95117    321.57885    -119.3282    8.6701269   -820.18323 
    4000    14.673529   -831.75601    11.999514    -819.7565    364.04814   -22099.182    8.5501457   -863.33473 
    4001    14.673268   -831.79808    12.041306   -819.75677    365.31608   -22056.055    8.5506025   -863.24763 
Loop time of 0.630851 on 1 procs for 1000 steps with 256 atoms

Performance: 136.958 ns/day, 0.175 hours/ns, 1585.160 timesteps/s
99.6% CPU use with 1 MPI tasks x 1 OpenMP threads

MPI task timing breakdown:
Section |  min time  |  avg time  |  max time  |%varavg| %total
---------------------------------------------------------------
Pair    | 0.61322    | 0.61322    | 0.61322    |   0.0 | 97.21
Bond    | 5.7594e-05 | 5.7594e-05 | 5.7594e-05 |   0.0 |  0.01
Neigh   | 0          | 0          | 0          |   0.0 |  0.00
Comm    | 0.006923   | 0.006923   | 0.006923   |   0.0 |  1.10
Output  | 0.00015548 | 0.00015548 | 0.00015548 |   0.0 |  0.02
Modify  | 0.0085483  | 0.0085483  | 0.0085483  |   0.0 |  1.36
Other   |            | 0.001945   |            |       |  0.31

Nlocal:    256 ave 256 max 256 min
Histogram: 1 0 0 0 0 0 0 0 0 0
Nghost:    2201 ave 2201 max 2201 min
Histogram: 1 0 0 0 0 0 0 0 0 0
Neighs:    22885 ave 22885 max 22885 min
Histogram: 1 0 0 0 0 0 0 0 0 0

Total # of neighbors = 22885
Ave neighs/atom = 89.3945
Ave special neighs/atom = 0
Neighbor list builds = 0
Dangerous builds = 0
Total wall time: 0:00:02
