LAMMPS (30 Apr 2019)
OMP_NUM_THREADS environment is not set. Defaulting to 1 thread. (../comm.cpp:88)
  using 1 OpenMP thread(s) per MPI task
OMP_NUM_THREADS environment is not set. Defaulting to 1 thread. (../comm.cpp:88)
  using 1 OpenMP thread(s) per MPI task
Lattice spacing in x,y,z = 3.64755 3.64755 3.64755
Created orthogonal box = (0 0 0) to (3.64755 3.64755 3.64755)
  1 by 1 by 1 MPI processor grid
Created 4 atoms
  create_atoms CPU = 0.00121545 secs
Replicating atoms ...
  orthogonal box = (0 0 0) to (14.5902 14.5902 14.5902)
  1 by 1 by 1 MPI processor grid
  256 atoms
Finding 1-2 1-3 1-4 neighbors ...
  special bond factors lj:   0          0          0         
  special bond factors coul: 0          0          0         
  0 = max # of 1-2 neighbors
  0 = max # of 1-3 neighbors
  0 = max # of 1-4 neighbors
  1 = max # of special neighbors
  special bonds CPU = 6.5053e-05 secs
  replicate CPU = 0.00035271 secs
WARNING: Using 'neigh_modify every 1 delay 0 check yes' setting during minimization (../min.cpp:168)
Neighbor list info ...
  update every 1 steps, delay 0 steps, check yes
  max neighbors/atom: 2000, page size: 100000
  master list distance cutoff = 8
  ghost atom cutoff = 8
  binsize = 4, bins = 4 4 4
  1 neighbor lists, perpetual/occasional/extra = 1 0 0
  (1) pair eam/fs, perpetual
      attributes: half, newton on
      pair build: half/bin/newton
      stencil: half/bin/3d/newton
      bin: standard
Setting up cg style minimization ...
  Unit style    : metal
  Current step  : 0
Per MPI rank memory allocation (min/avg/max) = 7.151 | 7.151 | 7.151 Mbytes
Step Temp E_pair E_mol TotEng Press 
       0            0   -840.41035            0   -840.41035   -9998.1358 
       1            0   -840.41035            0   -840.41035   -9998.1358 
Loop time of 0.00185834 on 1 procs for 1 steps with 256 atoms

99.7% CPU use with 1 MPI tasks x 1 OpenMP threads

Minimization stats:
  Stopping criterion = energy tolerance
  Energy initial, next-to-last, final = 
        -840.410350314     -840.410350314     -840.410350314
  Force two-norm initial, final = 8.14358e-14 7.73583e-14
  Force max component initial, final = 7.93116e-15 8.72826e-15
  Final line search alpha, max atom move = 1 8.72826e-15
  Iterations, force evaluations = 1 2

MPI task timing breakdown:
Section |  min time  |  avg time  |  max time  |%varavg| %total
---------------------------------------------------------------
Pair    | 0.001812   | 0.001812   | 0.001812   |   0.0 | 97.50
Bond    | 1.77e-07   | 1.77e-07   | 1.77e-07   |   0.0 |  0.01
Neigh   | 0          | 0          | 0          |   0.0 |  0.00
Comm    | 2.0898e-05 | 2.0898e-05 | 2.0898e-05 |   0.0 |  1.12
Output  | 0          | 0          | 0          |   0.0 |  0.00
Modify  | 0          | 0          | 0          |   0.0 |  0.00
Other   |            | 2.531e-05  |            |       |  1.36

Nlocal:    256 ave 256 max 256 min
Histogram: 1 0 0 0 0 0 0 0 0 0
Nghost:    2201 ave 2201 max 2201 min
Histogram: 1 0 0 0 0 0 0 0 0 0
Neighs:    22528 ave 22528 max 22528 min
Histogram: 1 0 0 0 0 0 0 0 0 0

Total # of neighbors = 22528
Ave neighs/atom = 88
Ave special neighs/atom = 0
Neighbor list builds = 0
Dangerous builds = 0
Setting up Verlet run ...
  Unit style    : metal
  Current step  : 1
  Time step     : 0.001
Per MPI rank memory allocation (min/avg/max) = 6.026 | 6.026 | 6.026 Mbytes
Step Lx PotEng KinEng TotEng Temp Press Density Enthalpy 
       1    14.590196   -840.41035    9.8884011   -830.52195          300   -6597.4866    8.6974893   -843.31139 
     100    14.590196   -835.60489    5.0842184   -830.52068    154.24794   -2963.8238    8.6974893   -836.26614 
     200    14.590196   -835.05082    4.5303159    -830.5205    137.44333   -3455.5856    8.6974893   -837.21926 
     300    14.590196   -836.08474    5.5638325   -830.52091    168.79875   -3909.9492    8.6974893   -838.10047 
     400    14.590196   -834.92201    4.4015028   -830.52051    133.53532   -3274.3823    8.6974893     -836.868 
     500    14.590196   -836.30245    5.7815674   -830.52089    175.40452   -3751.3951    8.6974893   -837.79308 
     600    14.590196   -835.37079    4.8501598   -830.52063    147.14694   -3488.7891    8.6974893   -837.28376 
     700    14.590196   -835.51147    4.9908411   -830.52063    151.41501   -3950.4157    8.6974893   -838.17864 
     800    14.590196   -836.45556    5.9345396   -830.52102    180.04548   -3955.5093    8.6974893    -838.1889 
     900    14.590196     -834.945    4.4245955    -830.5204    134.23592   -3120.9956    8.6974893   -836.57055 
    1000    14.590196   -836.09697    5.5761774    -830.5208    169.17328   -4036.7553    8.6974893   -838.34618 
    1001    14.590196   -836.16282    5.6419948   -830.52083    171.17008   -4043.6584    8.6974893   -838.35959 
Loop time of 0.583719 on 1 procs for 1000 steps with 256 atoms

Performance: 148.016 ns/day, 0.162 hours/ns, 1713.153 timesteps/s
99.6% CPU use with 1 MPI tasks x 1 OpenMP threads

MPI task timing breakdown:
Section |  min time  |  avg time  |  max time  |%varavg| %total
---------------------------------------------------------------
Pair    | 0.57249    | 0.57249    | 0.57249    |   0.0 | 98.08
Bond    | 3.9815e-05 | 3.9815e-05 | 3.9815e-05 |   0.0 |  0.01
Neigh   | 0          | 0          | 0          |   0.0 |  0.00
Comm    | 0.0069536  | 0.0069536  | 0.0069536  |   0.0 |  1.19
Output  | 0.00014763 | 0.00014763 | 0.00014763 |   0.0 |  0.03
Modify  | 0.0021315  | 0.0021315  | 0.0021315  |   0.0 |  0.37
Other   |            | 0.001956   |            |       |  0.34

Nlocal:    256 ave 256 max 256 min
Histogram: 1 0 0 0 0 0 0 0 0 0
Nghost:    2201 ave 2201 max 2201 min
Histogram: 1 0 0 0 0 0 0 0 0 0
Neighs:    22528 ave 22528 max 22528 min
Histogram: 1 0 0 0 0 0 0 0 0 0

Total # of neighbors = 22528
Ave neighs/atom = 88
Ave special neighs/atom = 0
Neighbor list builds = 0
Dangerous builds = 0
Setting up Verlet run ...
  Unit style    : metal
  Current step  : 1001
  Time step     : 0.001
Per MPI rank memory allocation (min/avg/max) = 6.026 | 6.026 | 6.026 Mbytes
Step Lx PotEng KinEng TotEng Temp Press Density Enthalpy 
    1001    14.590196   -836.16282    5.6419948   -830.52083    171.17008   -4043.6584    8.6974893   -838.35959 
    1100    14.566894   -835.87427    6.5294956   -829.34477    198.09559     4044.706    8.7392943   -821.54149 
    1200    14.600512   -834.07484    6.6205891   -827.45425    200.85924   -5097.2064    8.6790651   -837.35632 
    1300     14.57977   -833.48103    8.3742051   -825.10683    254.06145    3256.2946    8.7161606   -818.80792 
    1400    14.596865   -831.13714    8.5402358    -822.5969    259.09859    167.62155    8.6855729   -822.27152 
    1500    14.612739   -829.18814    8.6981968   -820.48994     263.8909   -2847.3233    8.6572974   -826.03519 
    1600     14.59074   -828.53568    9.4057769    -819.1299    285.35787    6237.2104    8.6965156   -807.03751 
    1700    14.616872   -829.74067    10.856441   -818.88422    329.36896   -4424.7695    8.6499565   -827.50892 
    1800    14.602472   -831.74829    11.486378   -820.26191    348.48035    243.17401     8.675572   -819.78932 
    1900    14.601224   -831.59399    10.401137   -821.19285    315.55568   -871.58553    8.6777956   -822.88628 
    2000    14.604531    -830.3646    8.7712316   -821.59337    266.10667   -1286.8633    8.6719019   -824.09536 
    2001    14.605073   -830.41267    8.8218733   -821.59079    267.64307   -1480.6052    8.6709367   -824.46978 
Loop time of 0.622056 on 1 procs for 1000 steps with 256 atoms

Performance: 138.894 ns/day, 0.173 hours/ns, 1607.571 timesteps/s
99.6% CPU use with 1 MPI tasks x 1 OpenMP threads

MPI task timing breakdown:
Section |  min time  |  avg time  |  max time  |%varavg| %total
---------------------------------------------------------------
Pair    | 0.60429    | 0.60429    | 0.60429    |   0.0 | 97.14
Bond    | 5.025e-05  | 5.025e-05  | 5.025e-05  |   0.0 |  0.01
Neigh   | 0          | 0          | 0          |   0.0 |  0.00
Comm    | 0.0070557  | 0.0070557  | 0.0070557  |   0.0 |  1.13
Output  | 0.00016546 | 0.00016546 | 0.00016546 |   0.0 |  0.03
Modify  | 0.0085544  | 0.0085544  | 0.0085544  |   0.0 |  1.38
Other   |            | 0.001943   |            |       |  0.31

Nlocal:    256 ave 256 max 256 min
Histogram: 1 0 0 0 0 0 0 0 0 0
Nghost:    2201 ave 2201 max 2201 min
Histogram: 1 0 0 0 0 0 0 0 0 0
Neighs:    22563 ave 22563 max 22563 min
Histogram: 1 0 0 0 0 0 0 0 0 0

Total # of neighbors = 22563
Ave neighs/atom = 88.1367
Ave special neighs/atom = 0
Neighbor list builds = 0
Dangerous builds = 0
Setting up Verlet run ...
  Unit style    : metal
  Current step  : 2001
  Time step     : 0.001
Per MPI rank memory allocation (min/avg/max) = 6.026 | 6.026 | 6.026 Mbytes
Step Lx PotEng KinEng TotEng Temp Press Density Enthalpy 
    2001    14.605073   -830.41267    8.8218733   -821.59079    267.64307   -1480.6052    8.6709367   -824.46978 
    2100    14.594889    -829.8457     9.856922   -819.98878    299.04497      3504.09    8.6891009   -813.18943 
    2200    14.618387   -829.28844    11.479128   -817.80931     348.2604   -2752.2961    8.6472663   -823.17572 
    2300    14.610482   -827.76022    12.366596   -815.39363    375.18491    717.45259    8.6613108   -813.99701 
    2400    14.616568   -824.82525      10.7991   -814.02615    327.62929    3253.8681    8.6504951   -807.68416 
    2500    14.625793   -826.17532    13.588711   -812.58661    412.26214   -1849.5139    8.6341382   -816.19826 
    2600    14.626603   -827.69044    15.043744   -812.64669    456.40577   -1576.4996    8.6327027   -815.72572 
    2700    14.613798   -828.31932     14.80637   -813.51294    449.20417    1402.3739    8.6554164   -810.78118 
    2800    14.628165   -827.66336    13.447064    -814.2163    407.96476   -3432.4138    8.6299386   -820.92223 
    2900     14.61633   -827.61666     13.10308   -814.51358    397.52879    1122.7112    8.6509179   -812.32545 
    3000    14.612732   -826.97771    13.213067   -813.76464    400.86562     1500.953    8.6573112   -810.84149 
    3001    14.612891   -826.86423    13.098631    -813.7656    397.39381    1527.5947    8.6570281   -810.79046 
Loop time of 0.629315 on 1 procs for 1000 steps with 256 atoms

Performance: 137.292 ns/day, 0.175 hours/ns, 1589.029 timesteps/s
99.7% CPU use with 1 MPI tasks x 1 OpenMP threads

MPI task timing breakdown:
Section |  min time  |  avg time  |  max time  |%varavg| %total
---------------------------------------------------------------
Pair    | 0.61156    | 0.61156    | 0.61156    |   0.0 | 97.18
Bond    | 4.8222e-05 | 4.8222e-05 | 4.8222e-05 |   0.0 |  0.01
Neigh   | 0          | 0          | 0          |   0.0 |  0.00
Comm    | 0.0069923  | 0.0069923  | 0.0069923  |   0.0 |  1.11
Output  | 0.00015651 | 0.00015651 | 0.00015651 |   0.0 |  0.02
Modify  | 0.0086174  | 0.0086174  | 0.0086174  |   0.0 |  1.37
Other   |            | 0.001937   |            |       |  0.31

Nlocal:    256 ave 256 max 256 min
Histogram: 1 0 0 0 0 0 0 0 0 0
Nghost:    2201 ave 2201 max 2201 min
Histogram: 1 0 0 0 0 0 0 0 0 0
Neighs:    22666 ave 22666 max 22666 min
Histogram: 1 0 0 0 0 0 0 0 0 0

Total # of neighbors = 22666
Ave neighs/atom = 88.5391
Ave special neighs/atom = 0
Neighbor list builds = 0
Dangerous builds = 0
Setting up Verlet run ...
  Unit style    : metal
  Current step  : 3001
  Time step     : 0.001
Per MPI rank memory allocation (min/avg/max) = 6.026 | 6.026 | 6.026 Mbytes
Step Lx PotEng KinEng TotEng Temp Press Density Enthalpy 
    3001    14.612891   -826.86423    13.098631    -813.7656    397.39381    1527.5947    8.6570281   -810.79046 
    3100    14.615988   -828.42471    10.855254   -817.56946    329.33295   -871.67499    8.6515262    -819.2682 
    3200    14.597011   -832.73897    10.597214   -822.14175    321.50436   -524.28878    8.6853131   -823.15953 
    3300    14.587076   -833.32716    8.0419929   -825.28517    243.98261    351.92047    8.7030698   -824.60339 
    3400    14.592975   -833.69152    6.4531628   -827.23836    195.77976   -2528.7223    8.6925197   -832.14317 
    3500    14.580876   -833.99276    5.5893934   -828.40337    169.57423    1474.5194    8.7141774   -825.55044 
    3600    14.567426   -833.91205     5.633638   -828.27842    170.91655      4500.96    8.7383375   -819.59395 
    3700    14.599801    -834.9944    7.6479409   -827.34646    232.02763    -4872.386    8.6803332    -836.8104 
    3800     14.59558   -833.49719    6.8442925    -826.6529    207.64608   -1864.5599    8.6878672   -830.27141 
    3900    14.560057   -833.29675    7.0469224   -826.24983    213.79358    8360.9973    8.7516113     -810.142 
    4000    14.600527   -835.00008    8.2860094   -826.71407    251.38572   -5478.6536    8.6790392   -837.35719 
    4001    14.599185   -835.05046    8.3269565   -826.72351    252.62799   -5120.0185    8.6814331   -836.66718 
Loop time of 0.62858 on 1 procs for 1000 steps with 256 atoms

Performance: 137.453 ns/day, 0.175 hours/ns, 1590.888 timesteps/s
99.6% CPU use with 1 MPI tasks x 1 OpenMP threads

MPI task timing breakdown:
Section |  min time  |  avg time  |  max time  |%varavg| %total
---------------------------------------------------------------
Pair    | 0.61089    | 0.61089    | 0.61089    |   0.0 | 97.19
Bond    | 4.7771e-05 | 4.7771e-05 | 4.7771e-05 |   0.0 |  0.01
Neigh   | 0          | 0          | 0          |   0.0 |  0.00
Comm    | 0.0070006  | 0.0070006  | 0.0070006  |   0.0 |  1.11
Output  | 0.00015617 | 0.00015617 | 0.00015617 |   0.0 |  0.02
Modify  | 0.0085405  | 0.0085405  | 0.0085405  |   0.0 |  1.36
Other   |            | 0.001945   |            |       |  0.31

Nlocal:    256 ave 256 max 256 min
Histogram: 1 0 0 0 0 0 0 0 0 0
Nghost:    2201 ave 2201 max 2201 min
Histogram: 1 0 0 0 0 0 0 0 0 0
Neighs:    22675 ave 22675 max 22675 min
Histogram: 1 0 0 0 0 0 0 0 0 0

Total # of neighbors = 22675
Ave neighs/atom = 88.5742
Ave special neighs/atom = 0
Neighbor list builds = 0
Dangerous builds = 0
Total wall time: 0:00:02
