LAMMPS (30 Apr 2019)
OMP_NUM_THREADS environment is not set. Defaulting to 1 thread. (../comm.cpp:88)
  using 1 OpenMP thread(s) per MPI task
#--------------Minimum Energy Script------------------------------------------

#--------------Define Units------------------------------------------

clear
OMP_NUM_THREADS environment is not set. Defaulting to 1 thread. (../comm.cpp:88)
  using 1 OpenMP thread(s) per MPI task
units metal
dimension 3
boundary p p p
atom_style atomic
atom_modify map array



#--------------Create Lattice------------------------------------------
# read in lattice constant from bash script
variable latconst file constant.txt
lattice hcp ${latconst}
lattice hcp 5.989999999999919
Lattice spacing in x,y,z = 5.99 10.375 9.78163
region box block 0 1 0 1 0 1 units lattice
create_box 1 box
Created orthogonal box = (0 0 0) to (5.99 10.375 9.78163)
  1 by 1 by 1 MPI processor grid
create_atoms 1 box
Created 4 atoms
  create_atoms CPU = 0.000185944 secs
replicate 7 7 7
  orthogonal box = (0 0 0) to (41.93 72.6249 68.4714)
  1 by 1 by 1 MPI processor grid
  1372 atoms
  replicate CPU = 0.000162357 secs

#-------------- Define Interatomic potential------------------------------------------
variable pairstyle file pairsty.txt
pair_style ${pairstyle}
pair_style eam/fs
variable potential file potential.txt
variable type file type.txt
pair_coeff * * ${potential} ${type}
pair_coeff * * Al1.eam.fs ${type}
pair_coeff * * Al1.eam.fs Al
neighbor 2.0 bin
neigh_modify delay 10 check yes

#-------------- Computes Properties------------------------------------------

compute eng all pe/atom
compute eatoms all reduce sum c_eng

#-------------- Define Thermo------------------------------------------
#No minimization since that would alter lattice constant
thermo 10
thermo_style custom step pe lx ly lz press c_eatoms
run 0
WARNING: No fixes defined, atoms won't move (../verlet.cpp:55)
Neighbor list info ...
  update every 1 steps, delay 10 steps, check yes
  max neighbors/atom: 2000, page size: 100000
  master list distance cutoff = 8.5
  ghost atom cutoff = 8.5
  binsize = 4.25, bins = 10 18 17
  1 neighbor lists, perpetual/occasional/extra = 1 0 0
  (1) pair eam/fs, perpetual
      attributes: half, newton on
      pair build: half/bin/atomonly/newton
      stencil: half/bin/3d/newton
      bin: standard
Per MPI rank memory allocation (min/avg/max) = 3.183 | 3.183 | 3.183 Mbytes
Step PotEng Lx Ly Lz Press c_eatoms 
       0   -10.045061        41.93     72.62489    68.471403   -3053.5162   -10.045061 
Loop time of 5.069e-06 on 1 procs for 0 steps with 1372 atoms

19.7% CPU use with 1 MPI tasks x 1 OpenMP threads

MPI task timing breakdown:
Section |  min time  |  avg time  |  max time  |%varavg| %total
---------------------------------------------------------------
Pair    | 0          | 0          | 0          |   0.0 |  0.00
Neigh   | 0          | 0          | 0          |   0.0 |  0.00
Comm    | 0          | 0          | 0          |   0.0 |  0.00
Output  | 0          | 0          | 0          |   0.0 |  0.00
Modify  | 0          | 0          | 0          |   0.0 |  0.00
Other   |            | 5.069e-06  |            |       |100.00

Nlocal:    1372 ave 1372 max 1372 min
Histogram: 1 0 0 0 0 0 0 0 0 0
Nghost:    1374 ave 1374 max 1374 min
Histogram: 1 0 0 0 0 0 0 0 0 0
Neighs:    12348 ave 12348 max 12348 min
Histogram: 1 0 0 0 0 0 0 0 0 0

Total # of neighbors = 12348
Ave neighs/atom = 9
Neighbor list builds = 0
Dangerous builds = 0


variable natoms equal "count(all)"
variable teng equal "c_eatoms"
variable length equal "lx"
variable ecoh equal "v_teng/v_natoms"

print "Total energy (eV) = ${teng};"
Total energy (eV) = -10.0450605364953;
print "Number of atoms = ${natoms};"
Number of atoms = 1372;
print "Lattice constant (Angstoms) = ${length};"
Lattice constant (Angstoms) = 41.9299999999994;
print "Cohesive energy (eV) = ${ecoh};"
Cohesive energy (eV) = -0.00732147269423856;
#Alone on line for easy read in
print "${ecoh}"
-0.00732147269423856
print "All done!"
All done!
print "${length}" file length.txt
41.9299999999994
print "${ecoh}" file ecoh_hcp.txt
-0.00732147269423856
Total wall time: 0:00:00
