LAMMPS (30 Apr 2019)
OMP_NUM_THREADS environment is not set. Defaulting to 1 thread. (../comm.cpp:88)
  using 1 OpenMP thread(s) per MPI task
OMP_NUM_THREADS environment is not set. Defaulting to 1 thread. (../comm.cpp:88)
  using 1 OpenMP thread(s) per MPI task
Lattice spacing in x,y,z = 5.99 5.99 5.99
Created orthogonal box = (0 0 0) to (5.99 5.99 5.99)
  1 by 1 by 1 MPI processor grid
Created 2 atoms
  create_atoms CPU = 0.000185299 secs
Replicating atoms ...
  orthogonal box = (0 0 0) to (41.93 41.93 41.93)
  1 by 1 by 1 MPI processor grid
  686 atoms
  replicate CPU = 0.000125924 secs
WARNING: No fixes defined, atoms won't move (../verlet.cpp:55)
Neighbor list info ...
  update every 1 steps, delay 10 steps, check yes
  max neighbors/atom: 2000, page size: 100000
  master list distance cutoff = 8.5
  ghost atom cutoff = 8.5
  binsize = 4.25, bins = 10 10 10
  1 neighbor lists, perpetual/occasional/extra = 1 0 0
  (1) pair eam/fs, perpetual
      attributes: half, newton on
      pair build: half/bin/atomonly/newton
      stencil: half/bin/3d/newton
      bin: standard
Setting up Verlet run ...
  Unit style    : metal
  Current step  : 0
  Time step     : 0.001
Per MPI rank memory allocation (min/avg/max) = 3.128 | 3.128 | 3.128 Mbytes
Step PotEng Lx Ly Lz Press c_eatoms 
       0   -265.87932        41.93        41.93        41.93   -16753.145   -265.87932 
Loop time of 5.55e-07 on 1 procs for 0 steps with 686 atoms

180.2% CPU use with 1 MPI tasks x 1 OpenMP threads

MPI task timing breakdown:
Section |  min time  |  avg time  |  max time  |%varavg| %total
---------------------------------------------------------------
Pair    | 0          | 0          | 0          |   0.0 |  0.00
Neigh   | 0          | 0          | 0          |   0.0 |  0.00
Comm    | 0          | 0          | 0          |   0.0 |  0.00
Output  | 0          | 0          | 0          |   0.0 |  0.00
Modify  | 0          | 0          | 0          |   0.0 |  0.00
Other   |            | 5.55e-07   |            |       |100.00

Nlocal:    686 ave 686 max 686 min
Histogram: 1 0 0 0 0 0 0 0 0 0
Nghost:    1043 ave 1043 max 1043 min
Histogram: 1 0 0 0 0 0 0 0 0 0
Neighs:    8918 ave 8918 max 8918 min
Histogram: 1 0 0 0 0 0 0 0 0 0

Total # of neighbors = 8918
Ave neighs/atom = 13
Neighbor list builds = 0
Dangerous builds = 0
Total energy (eV) = -265.87932250889;
Number of atoms = 686;
Lattice constant (Angstoms) = 41.9299999999994;
Cohesive energy (eV) = -0.387579187330743;
-0.387579187330743
All done!
41.9299999999994
-0.387579187330743
Total wall time: 0:00:00
