LAMMPS (30 Apr 2019)
OMP_NUM_THREADS environment is not set. Defaulting to 1 thread. (../comm.cpp:88)
  using 1 OpenMP thread(s) per MPI task
OMP_NUM_THREADS environment is not set. Defaulting to 1 thread. (../comm.cpp:88)
  using 1 OpenMP thread(s) per MPI task
Lattice spacing in x,y,z = 5.99 5.99 5.99
Created orthogonal box = (0 0 0) to (5.99 5.99 5.99)
  1 by 1 by 1 MPI processor grid
Created 4 atoms
  create_atoms CPU = 0.000192995 secs
Replicating atoms ...
  orthogonal box = (0 0 0) to (41.93 41.93 41.93)
  1 by 1 by 1 MPI processor grid
  1372 atoms
  replicate CPU = 0.000169082 secs
WARNING: No fixes defined, atoms won't move (../verlet.cpp:55)
Neighbor list info ...
  update every 1 steps, delay 10 steps, check yes
  max neighbors/atom: 2000, page size: 100000
  master list distance cutoff = 8.5
  ghost atom cutoff = 8.5
  binsize = 4.25, bins = 10 10 10
  1 neighbor lists, perpetual/occasional/extra = 1 0 0
  (1) pair eam/fs, perpetual
      attributes: half, newton on
      pair build: half/bin/atomonly/newton
      stencil: half/bin/3d/newton
      bin: standard
Setting up Verlet run ...
  Unit style    : metal
  Current step  : 0
  Time step     : 0.001
Per MPI rank memory allocation (min/avg/max) = 3.207 | 3.207 | 3.207 Mbytes
Step PotEng Lx Ly Lz Press c_eatoms 
       0   -2059.2787        41.93        41.93        41.93   -57796.443   -2059.2787 
Loop time of 6.07e-07 on 1 procs for 0 steps with 1372 atoms

164.7% CPU use with 1 MPI tasks x 1 OpenMP threads

MPI task timing breakdown:
Section |  min time  |  avg time  |  max time  |%varavg| %total
---------------------------------------------------------------
Pair    | 0          | 0          | 0          |   0.0 |  0.00
Neigh   | 0          | 0          | 0          |   0.0 |  0.00
Comm    | 0          | 0          | 0          |   0.0 |  0.00
Output  | 0          | 0          | 0          |   0.0 |  0.00
Modify  | 0          | 0          | 0          |   0.0 |  0.00
Other   |            | 6.07e-07   |            |       |100.00

Nlocal:    1372 ave 1372 max 1372 min
Histogram: 1 0 0 0 0 0 0 0 0 0
Nghost:    2058 ave 2058 max 2058 min
Histogram: 1 0 0 0 0 0 0 0 0 0
Neighs:    37044 ave 37044 max 37044 min
Histogram: 1 0 0 0 0 0 0 0 0 0

Total # of neighbors = 37044
Ave neighs/atom = 27
Neighbor list builds = 0
Dangerous builds = 0
Total energy (eV) = -2059.27872308071;
Number of atoms = 1372;
Lattice constant (Angstoms) = 41.9299999999994;
Cohesive energy (eV) = -1.50093201390722;
-1.50093201390722
All done!
41.9299999999994
-1.50093201390722
Total wall time: 0:00:00
