LAMMPS (30 Apr 2019)
OMP_NUM_THREADS environment is not set. Defaulting to 1 thread. (../comm.cpp:88)
  using 1 OpenMP thread(s) per MPI task
OMP_NUM_THREADS environment is not set. Defaulting to 1 thread. (../comm.cpp:88)
  using 1 OpenMP thread(s) per MPI task
Lattice spacing in x,y,z = 5.99 5.99 5.99
Created orthogonal box = (0 0 0) to (5.99 5.99 5.99)
  1 by 1 by 1 MPI processor grid
Created 1 atoms
  create_atoms CPU = 1.5235e-05 secs
Replicating atoms ...
  orthogonal box = (0 0 0) to (41.93 41.93 41.93)
  1 by 1 by 1 MPI processor grid
  343 atoms
  replicate CPU = 8.1283e-05 secs
WARNING: No fixes defined, atoms won't move (../verlet.cpp:55)
Neighbor list info ...
  update every 1 steps, delay 10 steps, check yes
  max neighbors/atom: 2000, page size: 100000
  master list distance cutoff = 8
  ghost atom cutoff = 8
  binsize = 4, bins = 11 11 11
  1 neighbor lists, perpetual/occasional/extra = 1 0 0
  (1) pair eam/fs, perpetual
      attributes: half, newton on
      pair build: half/bin/atomonly/newton
      stencil: half/bin/3d/newton
      bin: standard
Setting up Verlet run ...
  Unit style    : metal
  Current step  : 0
  Time step     : 0.001
Per MPI rank memory allocation (min/avg/max) = 3.105 | 3.105 | 3.105 Mbytes
Step PotEng Lx Ly Lz Press c_eatoms 
       0 -2.8690371e-06        41.93        41.93        41.93 -0.049295778 -2.8690371e-06 
Loop time of 5.32e-07 on 1 procs for 0 steps with 343 atoms

188.0% CPU use with 1 MPI tasks x 1 OpenMP threads

MPI task timing breakdown:
Section |  min time  |  avg time  |  max time  |%varavg| %total
---------------------------------------------------------------
Pair    | 0          | 0          | 0          |   0.0 |  0.00
Neigh   | 0          | 0          | 0          |   0.0 |  0.00
Comm    | 0          | 0          | 0          |   0.0 |  0.00
Output  | 0          | 0          | 0          |   0.0 |  0.00
Modify  | 0          | 0          | 0          |   0.0 |  0.00
Other   |            | 5.32e-07   |            |       |100.00

Nlocal:    343 ave 343 max 343 min
Histogram: 1 0 0 0 0 0 0 0 0 0
Nghost:    657 ave 657 max 657 min
Histogram: 1 0 0 0 0 0 0 0 0 0
Neighs:    1029 ave 1029 max 1029 min
Histogram: 1 0 0 0 0 0 0 0 0 0

Total # of neighbors = 1029
Ave neighs/atom = 3
Neighbor list builds = 0
Dangerous builds = 0
Total energy (eV) = -2.86903708238916e-06;
Number of atoms = 343;
Lattice constant (Angstoms) = 41.9299999999994;
Cohesive energy (eV) = -8.36453959880222e-09;
-8.36453959880222e-09
All done!
41.9299999999994
-8.36453959880222e-09
Total wall time: 0:00:00
