LAMMPS (30 Apr 2019)
OMP_NUM_THREADS environment is not set. Defaulting to 1 thread. (../comm.cpp:88)
  using 1 OpenMP thread(s) per MPI task
OMP_NUM_THREADS environment is not set. Defaulting to 1 thread. (../comm.cpp:88)
  using 1 OpenMP thread(s) per MPI task
Lattice spacing in x,y,z = 5.99 10.375 9.78163
Created orthogonal box = (0 0 0) to (5.99 10.375 9.78163)
  1 by 1 by 1 MPI processor grid
Created 4 atoms
  create_atoms CPU = 0.00018754 secs
Replicating atoms ...
  orthogonal box = (0 0 0) to (41.93 72.6249 68.4714)
  1 by 1 by 1 MPI processor grid
  1372 atoms
  replicate CPU = 0.000168281 secs
WARNING: No fixes defined, atoms won't move (../verlet.cpp:55)
Neighbor list info ...
  update every 1 steps, delay 10 steps, check yes
  max neighbors/atom: 2000, page size: 100000
  master list distance cutoff = 8
  ghost atom cutoff = 8
  binsize = 4, bins = 11 19 18
  1 neighbor lists, perpetual/occasional/extra = 1 0 0
  (1) pair eam/fs, perpetual
      attributes: half, newton on
      pair build: half/bin/atomonly/newton
      stencil: half/bin/3d/newton
      bin: standard
Setting up Verlet run ...
  Unit style    : metal
  Current step  : 0
  Time step     : 0.001
Per MPI rank memory allocation (min/avg/max) = 3.188 | 3.188 | 3.188 Mbytes
Step PotEng Lx Ly Lz Press c_eatoms 
       0 -2.2952297e-05        41.93     72.62489    68.471403  -0.13942952 -2.2952297e-05 
Loop time of 5.31e-07 on 1 procs for 0 steps with 1372 atoms

188.3% CPU use with 1 MPI tasks x 1 OpenMP threads

MPI task timing breakdown:
Section |  min time  |  avg time  |  max time  |%varavg| %total
---------------------------------------------------------------
Pair    | 0          | 0          | 0          |   0.0 |  0.00
Neigh   | 0          | 0          | 0          |   0.0 |  0.00
Comm    | 0          | 0          | 0          |   0.0 |  0.00
Output  | 0          | 0          | 0          |   0.0 |  0.00
Modify  | 0          | 0          | 0          |   0.0 |  0.00
Other   |            | 5.31e-07   |            |       |100.00

Nlocal:    1372 ave 1372 max 1372 min
Histogram: 1 0 0 0 0 0 0 0 0 0
Nghost:    1374 ave 1374 max 1374 min
Histogram: 1 0 0 0 0 0 0 0 0 0
Neighs:    8232 ave 8232 max 8232 min
Histogram: 1 0 0 0 0 0 0 0 0 0

Total # of neighbors = 8232
Ave neighs/atom = 6
Neighbor list builds = 0
Dangerous builds = 0
Total energy (eV) = -2.29522966834346e-05;
Number of atoms = 1372;
Lattice constant (Angstoms) = 41.9299999999994;
Cohesive energy (eV) = -1.67290792153313e-08;
-1.67290792153313e-08
All done!
41.9299999999994
-1.67290792153313e-08
Total wall time: 0:00:00
