LAMMPS (30 Apr 2019)
OMP_NUM_THREADS environment is not set. Defaulting to 1 thread. (../comm.cpp:88)
  using 1 OpenMP thread(s) per MPI task
Lattice spacing in x,y,z = 3.70314 3.70314 3.70314
Created orthogonal box = (0 0 0) to (3.70314 3.70314 3.70314)
  1 by 1 by 1 MPI processor grid
Created 4 atoms
  create_atoms CPU = 0.00118519 secs
Replicating atoms ...
  orthogonal box = (0 0 0) to (25.922 25.922 25.922)
  1 by 1 by 1 MPI processor grid
  1372 atoms
Finding 1-2 1-3 1-4 neighbors ...
  special bond factors lj:   0          0          0         
  special bond factors coul: 0          0          0         
  0 = max # of 1-2 neighbors
  0 = max # of 1-3 neighbors
  0 = max # of 1-4 neighbors
  1 = max # of special neighbors
  special bonds CPU = 0.000154158 secs
  replicate CPU = 0.000588811 secs
Neighbor list info ...
  update every 1 steps, delay 0 steps, check yes
  max neighbors/atom: 2000, page size: 100000
  master list distance cutoff = 7
  ghost atom cutoff = 7
  1 neighbor lists, perpetual/occasional/extra = 1 0 0
  (1) pair eam/fs, perpetual
      attributes: half, newton on
      pair build: half/nsq/newton
      stencil: none
      bin: none
Setting up Verlet run ...
  Unit style    : metal
  Current step  : 0
  Time step     : 0.001
Per MPI rank memory allocation (min/avg/max) = 6.069 | 6.069 | 6.069 Mbytes
Step Temp PotEng Press f_avp[1] f_avp[2] f_avp[3] f_avp[4] f_avp[5] f_avp[6] 
       0    3490.5392   -4484.5945    -30502.28            0            0            0            0            0            0 
     100    1454.1805   -4281.9076   -14837.017   -26835.051    -26785.76   -26634.735   -568.41405   -861.66516   -189.44435 
     200    1483.6047   -4239.9954   -7136.1697   -11309.481    -10212.06   -10121.992   -79.154162   -208.14397    582.98925 
     300    1422.1214   -4216.9896   -4072.9293   -4887.5924   -4800.5585   -4665.0276    1532.4378    1048.0662    52.955648 
     400    1441.0944   -4219.6734   -3877.1947   -1648.0434   -2420.8903    -2510.422    181.27553    1080.9533   -400.55552 
     500    1521.1447   -4208.2631   -1858.9093    -4101.584   -2564.9014   -2965.9887    212.31839    1530.0085    804.70666 
     600     1547.138    -4194.605    2135.3747   -89.532243      721.622  -0.72819203   -173.97301    312.46368    129.64702 
     700    1474.5651    -4195.609    388.03572   -1440.7083    1408.2259    1321.6236    118.48453    241.08734   -1325.3121 
     800     1511.217   -4196.3486    1660.8604    511.84234   -453.91017    1901.9724    1060.7556    1245.9025   -771.57738 
     900    1460.4046   -4196.4415    662.46267    1007.0064   -333.87958    1867.0481   -256.37619   -411.92616     -263.808 
    1000     1417.207   -4194.4991    -375.7396    1512.2643    682.18381    1416.5293   -1445.2155   -1537.7468    1165.2456 
Loop time of 3.32328 on 1 procs for 1000 steps with 1372 atoms

Performance: 25.998 ns/day, 0.923 hours/ns, 300.908 timesteps/s
99.7% CPU use with 1 MPI tasks x 1 OpenMP threads

MPI task timing breakdown:
Section |  min time  |  avg time  |  max time  |%varavg| %total
---------------------------------------------------------------
Pair    | 2.8797     | 2.8797     | 2.8797     |   0.0 | 86.65
Bond    | 9.8978e-05 | 9.8978e-05 | 9.8978e-05 |   0.0 |  0.00
Neigh   | 0.36236    | 0.36236    | 0.36236    |   0.0 | 10.90
Comm    | 0.013681   | 0.013681   | 0.013681   |   0.0 |  0.41
Output  | 0.00020707 | 0.00020707 | 0.00020707 |   0.0 |  0.01
Modify  | 0.06174    | 0.06174    | 0.06174    |   0.0 |  1.86
Other   |            | 0.005542   |            |       |  0.17

Nlocal:    1372 ave 1372 max 1372 min
Histogram: 1 0 0 0 0 0 0 0 0 0
Nghost:    3295 ave 3295 max 3295 min
Histogram: 1 0 0 0 0 0 0 0 0 0
Neighs:    78456 ave 78456 max 78456 min
Histogram: 1 0 0 0 0 0 0 0 0 0

Total # of neighbors = 78456
Ave neighs/atom = 57.1837
Ave special neighs/atom = 0
Neighbor list builds = 18
Dangerous builds = 0
1
WARNING: New thermo_style command, previous thermo_modify settings will be lost (../output.cpp:705)
Setting up Verlet run ...
  Unit style    : metal
  Current step  : 0
  Time step     : 0.001
Per MPI rank memory allocation (min/avg/max) = 6.069 | 6.069 | 6.069 Mbytes
Step Temp PotEng Press f_avp[1] f_avp[2] f_avp[3] f_avp[4] f_avp[5] f_avp[6] 
       0     1417.207   -4194.4991    -375.7396            0            0            0            0            0            0 
     100    1464.3568   -4183.9775    1696.8947    2638.9363    2077.1861   -245.55113    154.67017   -692.36967    580.68779 
     200    1492.9927   -4180.2806    2323.6545    473.31868     3862.506    1706.4104   -57.304664    242.24621    1287.9198 
     300    1428.6257   -4180.1797      1887.63   -62.818695    5472.8427    1878.3559   -650.31954    1462.7708    1041.2025 
Loop time of 1.07007 on 1 procs for 300 steps with 1372 atoms

Performance: 24.223 ns/day, 0.991 hours/ns, 280.356 timesteps/s
99.7% CPU use with 1 MPI tasks x 1 OpenMP threads

MPI task timing breakdown:
Section |  min time  |  avg time  |  max time  |%varavg| %total
---------------------------------------------------------------
Pair    | 0.88417    | 0.88417    | 0.88417    |   0.0 | 82.63
Bond    | 3.1068e-05 | 3.1068e-05 | 3.1068e-05 |   0.0 |  0.00
Neigh   | 0.16146    | 0.16146    | 0.16146    |   0.0 | 15.09
Comm    | 0.0041039  | 0.0041039  | 0.0041039  |   0.0 |  0.38
Output  | 6.359e-05  | 6.359e-05  | 6.359e-05  |   0.0 |  0.01
Modify  | 0.018562   | 0.018562   | 0.018562   |   0.0 |  1.73
Other   |            | 0.001676   |            |       |  0.16

Nlocal:    1372 ave 1372 max 1372 min
Histogram: 1 0 0 0 0 0 0 0 0 0
Nghost:    3294 ave 3294 max 3294 min
Histogram: 1 0 0 0 0 0 0 0 0 0
Neighs:    78279 ave 78279 max 78279 min
Histogram: 1 0 0 0 0 0 0 0 0 0

Total # of neighbors = 78279
Ave neighs/atom = 57.0547
Ave special neighs/atom = 0
Neighbor list builds = 5
Dangerous builds = 0
System init for write_restart ...
OMP_NUM_THREADS environment is not set. Defaulting to 1 thread. (../comm.cpp:88)
  using 1 OpenMP thread(s) per MPI task
Reading restart file ...
  restart file = 30 Apr 2019, LAMMPS = 30 Apr 2019
  restoring atom style full from restart
  orthogonal box = (0 0 0) to (25.922 25.922 25.922)
  1 by 1 by 1 MPI processor grid
  pair style eam/fs stores no restart info
  1372 atoms
Finding 1-2 1-3 1-4 neighbors ...
  special bond factors lj:   0          0          0         
  special bond factors coul: 0          0          0         
  0 = max # of 1-2 neighbors
  0 = max # of 1-3 neighbors
  0 = max # of 1-4 neighbors
  1 = max # of special neighbors
  special bonds CPU = 0.000125918 secs
  read_restart CPU = 0.00055444 secs
Changing box ...
  triclinic box = (0 0 0) to (25.922 25.922 25.922) with tilt (0 0 0)
Changing box ...
  triclinic box = (0 0 0) to (25.4035 25.922 25.922) with tilt (0 0 0)
  triclinic box = (0 0 0) to (25.4035 25.922 25.922) with tilt (0 0 0)
  triclinic box = (0 0 0) to (25.4035 25.922 25.922) with tilt (0 0 0)
Neighbor list info ...
  update every 1 steps, delay 0 steps, check yes
  max neighbors/atom: 2000, page size: 100000
  master list distance cutoff = 7
  ghost atom cutoff = 7
  1 neighbor lists, perpetual/occasional/extra = 1 0 0
  (1) pair eam/fs, perpetual
      attributes: half, newton on
      pair build: half/nsq/newton
      stencil: none
      bin: none
Setting up Verlet run ...
  Unit style    : metal
  Current step  : 0
  Time step     : 0.001
Per MPI rank memory allocation (min/avg/max) = 6.052 | 6.052 | 6.052 Mbytes
Step Temp PotEng Press f_avp[1] f_avp[2] f_avp[3] f_avp[4] f_avp[5] f_avp[6] 
       0    1428.6257   -4180.2267    28401.469            0            0            0            0            0            0 
     100    1448.1956    -4132.334    34406.246    35051.609     33746.85    28209.624    533.73245    1931.8843   -430.87559 
     200    1469.7252   -4099.1128    40996.605    36417.256    41488.154    35394.059   -94.650366    1512.4525    -158.7007 
     300    1403.4516    -4077.848    42560.327    40912.149    45403.304    41272.356   -915.24534    1874.5916    129.53104 
     400    1459.2173   -4102.4945    39582.325    43837.706        42513    41919.783    49.897084     1369.587   -91.732917 
     500    1543.2371     -4124.99    38717.445    40035.043    37907.668    37869.214    1073.9928    1843.7612   -912.95147 
     600    1555.1951   -4134.4889    36658.436    36525.726    38341.722    36593.946   -688.19593    246.07454   -2025.4372 
     700    1486.9292   -4145.6489    33883.713    33534.261    37964.456    32956.347   -104.09449   -289.27531   -911.75741 
     800     1503.199   -4151.6625    33979.162    33508.089    33911.436    31420.914    450.84874   -137.06554   -2309.4378 
     900    1468.4506    -4158.056     31092.48    33097.812    33345.076    30066.822   -919.42542   -1177.7835    -1303.942 
    1000    1419.0904   -4169.4419    29762.839    31888.625     32598.02     28279.36   -1210.0534   -110.64937   -1489.1718 
Loop time of 3.73114 on 1 procs for 1000 steps with 1372 atoms

Performance: 23.156 ns/day, 1.036 hours/ns, 268.015 timesteps/s
99.7% CPU use with 1 MPI tasks x 1 OpenMP threads

MPI task timing breakdown:
Section |  min time  |  avg time  |  max time  |%varavg| %total
---------------------------------------------------------------
Pair    | 3.0148     | 3.0148     | 3.0148     |   0.0 | 80.80
Bond    | 9.9963e-05 | 9.9963e-05 | 9.9963e-05 |   0.0 |  0.00
Neigh   | 0.63427    | 0.63427    | 0.63427    |   0.0 | 17.00
Comm    | 0.014182   | 0.014182   | 0.014182   |   0.0 |  0.38
Output  | 0.00020521 | 0.00020521 | 0.00020521 |   0.0 |  0.01
Modify  | 0.061939   | 0.061939   | 0.061939   |   0.0 |  1.66
Other   |            | 0.005604   |            |       |  0.15

Nlocal:    1372 ave 1372 max 1372 min
Histogram: 1 0 0 0 0 0 0 0 0 0
Nghost:    3376 ave 3376 max 3376 min
Histogram: 1 0 0 0 0 0 0 0 0 0
Neighs:    80385 ave 80385 max 80385 min
Histogram: 1 0 0 0 0 0 0 0 0 0

Total # of neighbors = 80385
Ave neighs/atom = 58.5897
Ave special neighs/atom = 0
Neighbor list builds = 19
Dangerous builds = 0
WARNING: New thermo_style command, previous thermo_modify settings will be lost (../output.cpp:705)
Setting up Verlet run ...
  Unit style    : metal
  Current step  : 0
  Time step     : 0.001
Per MPI rank memory allocation (min/avg/max) = 6.052 | 6.052 | 6.052 Mbytes
Step Temp PotEng Press f_avp[1] f_avp[2] f_avp[3] f_avp[4] f_avp[5] f_avp[6] 
       0    1419.0904   -4169.4419    29762.839            0            0            0            0            0            0 
     100    1463.2713    -4159.327    29842.614    29539.579    31627.401    27386.775     1910.426    409.45809     -367.198 
     200    1486.7766   -4144.5763     34121.06    30261.913    34192.588    30465.633    1341.1623    159.98076    570.50728 
     300    1423.3398   -4137.3905    33593.183    34537.659    35059.818    33314.178    711.74821    665.71829    589.04042 
Loop time of 1.23977 on 1 procs for 300 steps with 1372 atoms

Performance: 20.907 ns/day, 1.148 hours/ns, 241.980 timesteps/s
99.7% CPU use with 1 MPI tasks x 1 OpenMP threads

MPI task timing breakdown:
Section |  min time  |  avg time  |  max time  |%varavg| %total
---------------------------------------------------------------
Pair    | 0.91939    | 0.91939    | 0.91939    |   0.0 | 74.16
Bond    | 3.4144e-05 | 3.4144e-05 | 3.4144e-05 |   0.0 |  0.00
Neigh   | 0.29184    | 0.29184    | 0.29184    |   0.0 | 23.54
Comm    | 0.0054495  | 0.0054495  | 0.0054495  |   0.0 |  0.44
Output  | 8.8047e-05 | 8.8047e-05 | 8.8047e-05 |   0.0 |  0.01
Modify  | 0.021162   | 0.021162   | 0.021162   |   0.0 |  1.71
Other   |            | 0.001803   |            |       |  0.15

Nlocal:    1372 ave 1372 max 1372 min
Histogram: 1 0 0 0 0 0 0 0 0 0
Nghost:    3410 ave 3410 max 3410 min
Histogram: 1 0 0 0 0 0 0 0 0 0
Neighs:    80116 ave 80116 max 80116 min
Histogram: 1 0 0 0 0 0 0 0 0 0

Total # of neighbors = 80116
Ave neighs/atom = 58.3936
Ave special neighs/atom = 0
Neighbor list builds = 5
Dangerous builds = 0
OMP_NUM_THREADS environment is not set. Defaulting to 1 thread. (../comm.cpp:88)
  using 1 OpenMP thread(s) per MPI task
Reading restart file ...
  restart file = 30 Apr 2019, LAMMPS = 30 Apr 2019
  restoring atom style full from restart
  orthogonal box = (0 0 0) to (25.922 25.922 25.922)
  1 by 1 by 1 MPI processor grid
  pair style eam/fs stores no restart info
  1372 atoms
Finding 1-2 1-3 1-4 neighbors ...
  special bond factors lj:   0          0          0         
  special bond factors coul: 0          0          0         
  0 = max # of 1-2 neighbors
  0 = max # of 1-3 neighbors
  0 = max # of 1-4 neighbors
  1 = max # of special neighbors
  special bonds CPU = 0.00089315 secs
  read_restart CPU = 0.00175592 secs
Changing box ...
  triclinic box = (0 0 0) to (25.922 25.922 25.922) with tilt (0 0 0)
Changing box ...
  triclinic box = (0 0 0) to (26.4404 25.922 25.922) with tilt (0 0 0)
  triclinic box = (0 0 0) to (26.4404 25.922 25.922) with tilt (0 0 0)
  triclinic box = (0 0 0) to (26.4404 25.922 25.922) with tilt (0 0 0)
Neighbor list info ...
  update every 1 steps, delay 0 steps, check yes
  max neighbors/atom: 2000, page size: 100000
  master list distance cutoff = 7
  ghost atom cutoff = 7
  1 neighbor lists, perpetual/occasional/extra = 1 0 0
  (1) pair eam/fs, perpetual
      attributes: half, newton on
      pair build: half/nsq/newton
      stencil: none
      bin: none
Setting up Verlet run ...
  Unit style    : metal
  Current step  : 0
  Time step     : 0.001
Per MPI rank memory allocation (min/avg/max) = 6.028 | 6.028 | 6.028 Mbytes
Step Temp PotEng Press f_avp[1] f_avp[2] f_avp[3] f_avp[4] f_avp[5] f_avp[6] 
       0    1428.6257   -4173.3894   -23133.942            0            0            0            0            0            0 
     100    1447.6835   -4116.5412   -12400.982   -22833.534   -10766.648   -15948.095    269.59814    1952.4768   -547.23462 
     200    1468.7401   -4079.9132   -3664.6554   -15393.516   -1272.3863   -7093.9196    69.115994    1560.5082   -310.64584 
     300    1403.5569   -4052.7879     655.8135   -6552.4831    4469.5552    396.89981    -770.2893    1645.3165   -112.61945 
     400     1457.951   -4073.8823   -1917.2891   -1181.8331    2274.3949    2196.7832    10.511379    1494.2914   -195.21729 
     500    1543.1285   -4095.5981   -4066.0201   -6067.5591   -3208.9236   -2257.0958    860.55593    1970.7826   -1096.6219 
     600    1556.1634   -4102.1954   -5941.2911    -9398.102   -2901.1944   -3698.8371   -1135.0329    295.82037   -2222.1039 
     700    1483.0109   -4112.2435    -8679.261   -12880.181   -3179.8064   -7120.4065   -738.89441   -450.82443    -1297.724 
     800     1503.708   -4118.4559   -9030.1512   -13567.317   -7633.8341   -8886.7894   -116.83704   -359.16562   -2713.6289 
     900    1465.8799   -4122.6377    -11921.38   -13857.725     -8337.06   -10406.863   -1651.3041   -1259.2759   -1970.6375 
    1000    1417.5918   -4134.0179   -13512.852   -15240.696   -9592.3794   -12204.996   -1423.2131    -272.0622   -1795.4756 
Loop time of 4.76363 on 1 procs for 1000 steps with 1372 atoms

Performance: 18.137 ns/day, 1.323 hours/ns, 209.924 timesteps/s
99.6% CPU use with 1 MPI tasks x 1 OpenMP threads

MPI task timing breakdown:
Section |  min time  |  avg time  |  max time  |%varavg| %total
---------------------------------------------------------------
Pair    | 3.4182     | 3.4182     | 3.4182     |   0.0 | 71.76
Bond    | 0.00010466 | 0.00010466 | 0.00010466 |   0.0 |  0.00
Neigh   | 1.2356     | 1.2356     | 1.2356     |   0.0 | 25.94
Comm    | 0.022664   | 0.022664   | 0.022664   |   0.0 |  0.48
Output  | 0.00025642 | 0.00025642 | 0.00025642 |   0.0 |  0.01
Modify  | 0.070978   | 0.070978   | 0.070978   |   0.0 |  1.49
Other   |            | 0.01578    |            |       |  0.33

Nlocal:    1372 ave 1372 max 1372 min
Histogram: 1 0 0 0 0 0 0 0 0 0
Nghost:    3313 ave 3313 max 3313 min
Histogram: 1 0 0 0 0 0 0 0 0 0
Neighs:    76089 ave 76089 max 76089 min
Histogram: 1 0 0 0 0 0 0 0 0 0

Total # of neighbors = 76089
Ave neighs/atom = 55.4585
Ave special neighs/atom = 0
Neighbor list builds = 19
Dangerous builds = 0
WARNING: New thermo_style command, previous thermo_modify settings will be lost (../output.cpp:705)
Setting up Verlet run ...
  Unit style    : metal
  Current step  : 0
  Time step     : 0.001
Per MPI rank memory allocation (min/avg/max) = 6.053 | 6.053 | 6.053 Mbytes
Step Temp PotEng Press f_avp[1] f_avp[2] f_avp[3] f_avp[4] f_avp[5] f_avp[6] 
       0    1417.5918   -4134.0179   -13512.852            0            0            0            0            0            0 
     100    1462.6192   -4121.9715   -12455.143   -16969.648   -10394.448   -12908.495    2023.2447    511.33811   -688.05111 
     200    1488.6333   -4108.1527   -8267.5256    -15170.68   -7620.5966   -9279.4164    1308.8891     508.6544    219.63083 
     300    1425.5674   -4099.5752   -7364.0796   -10151.263   -6098.9299   -6503.0417    621.42474    481.28893    75.787804 
Loop time of 1.02492 on 1 procs for 300 steps with 1372 atoms

Performance: 25.290 ns/day, 0.949 hours/ns, 292.706 timesteps/s
99.7% CPU use with 1 MPI tasks x 1 OpenMP threads

MPI task timing breakdown:
Section |  min time  |  avg time  |  max time  |%varavg| %total
---------------------------------------------------------------
Pair    | 0.84045    | 0.84045    | 0.84045    |   0.0 | 82.00
Bond    | 2.8803e-05 | 2.8803e-05 | 2.8803e-05 |   0.0 |  0.00
Neigh   | 0.16048    | 0.16048    | 0.16048    |   0.0 | 15.66
Comm    | 0.004099   | 0.004099   | 0.004099   |   0.0 |  0.40
Output  | 6.4347e-05 | 6.4347e-05 | 6.4347e-05 |   0.0 |  0.01
Modify  | 0.018143   | 0.018143   | 0.018143   |   0.0 |  1.77
Other   |            | 0.001653   |            |       |  0.16

Nlocal:    1372 ave 1372 max 1372 min
Histogram: 1 0 0 0 0 0 0 0 0 0
Nghost:    3354 ave 3354 max 3354 min
Histogram: 1 0 0 0 0 0 0 0 0 0
Neighs:    76027 ave 76027 max 76027 min
Histogram: 1 0 0 0 0 0 0 0 0 0

Total # of neighbors = 76027
Ave neighs/atom = 55.4133
Ave special neighs/atom = 0
Neighbor list builds = 5
Dangerous builds = 0
OMP_NUM_THREADS environment is not set. Defaulting to 1 thread. (../comm.cpp:88)
  using 1 OpenMP thread(s) per MPI task
Reading restart file ...
  restart file = 30 Apr 2019, LAMMPS = 30 Apr 2019
  restoring atom style full from restart
  orthogonal box = (0 0 0) to (25.922 25.922 25.922)
  1 by 1 by 1 MPI processor grid
  pair style eam/fs stores no restart info
  1372 atoms
Finding 1-2 1-3 1-4 neighbors ...
  special bond factors lj:   0          0          0         
  special bond factors coul: 0          0          0         
  0 = max # of 1-2 neighbors
  0 = max # of 1-3 neighbors
  0 = max # of 1-4 neighbors
  1 = max # of special neighbors
  special bonds CPU = 0.000129898 secs
  read_restart CPU = 0.000620947 secs
Changing box ...
  triclinic box = (0 0 0) to (25.922 25.922 25.922) with tilt (0 0 0)
Changing box ...
  triclinic box = (0 0 0) to (25.922 25.4035 25.922) with tilt (0 0 0)
  triclinic box = (0 0 0) to (25.922 25.4035 25.922) with tilt (0 0 0)
Neighbor list info ...
  update every 1 steps, delay 0 steps, check yes
  max neighbors/atom: 2000, page size: 100000
  master list distance cutoff = 7
  ghost atom cutoff = 7
  1 neighbor lists, perpetual/occasional/extra = 1 0 0
  (1) pair eam/fs, perpetual
      attributes: half, newton on
      pair build: half/nsq/newton
      stencil: none
      bin: none
Setting up Verlet run ...
  Unit style    : metal
  Current step  : 0
  Time step     : 0.001
Per MPI rank memory allocation (min/avg/max) = 6.03 | 6.03 | 6.03 Mbytes
Step Temp PotEng Press f_avp[1] f_avp[2] f_avp[3] f_avp[4] f_avp[5] f_avp[6] 
       0    1428.6257   -4179.0555    28401.832            0            0            0            0            0            0 
     100    1447.8264   -4131.5481    34402.809    28428.143    40327.674    28194.755    359.77778    1933.1971   -550.09513 
     200     1469.374   -4098.6353    40944.453    31995.209    46289.876    35306.762   -173.01966    1326.3445   -205.13708 
     300    1404.2113   -4078.1114    42537.742    37902.785    48199.328    41046.764   -861.30869    1592.3587   -6.0650022 
     400     1458.963    -4102.574    39619.401    41983.263    44387.252    42207.616    139.47114    1271.5702   -199.02049 
     500    1542.9141   -4125.4633    38613.052    37599.303    39845.888    38353.227    1187.1009    1640.8132   -1028.5287 
     600    1555.1982   -4134.0199     36828.22    34106.963    40509.406    36874.064   -815.67905    14.489135   -2205.5542 
     700    1486.0299   -4145.6619    33874.271    30861.048    40467.943    33208.239   -199.33193   -544.08324    -1256.374 
     800    1502.5794    -4151.623    33953.724    30767.585    36319.449    31371.278    438.01106   -267.95592   -2757.6812 
     900    1467.2334   -4157.7591    31218.179    30288.299    35925.178    30235.824   -1020.2449   -1113.4917    -1661.123 
    1000    1418.9669   -4169.7289    29609.562    29021.945    35107.334    28440.319   -963.37581   -99.830202   -1609.1858 
Loop time of 3.64091 on 1 procs for 1000 steps with 1372 atoms

Performance: 23.730 ns/day, 1.011 hours/ns, 274.656 timesteps/s
99.7% CPU use with 1 MPI tasks x 1 OpenMP threads

MPI task timing breakdown:
Section |  min time  |  avg time  |  max time  |%varavg| %total
---------------------------------------------------------------
Pair    | 2.9362     | 2.9362     | 2.9362     |   0.0 | 80.64
Bond    | 8.54e-05   | 8.54e-05   | 8.54e-05   |   0.0 |  0.00
Neigh   | 0.62404    | 0.62404    | 0.62404    |   0.0 | 17.14
Comm    | 0.014279   | 0.014279   | 0.014279   |   0.0 |  0.39
Output  | 0.00021248 | 0.00021248 | 0.00021248 |   0.0 |  0.01
Modify  | 0.060543   | 0.060543   | 0.060543   |   0.0 |  1.66
Other   |            | 0.005578   |            |       |  0.15

Nlocal:    1372 ave 1372 max 1372 min
Histogram: 1 0 0 0 0 0 0 0 0 0
Nghost:    3345 ave 3345 max 3345 min
Histogram: 1 0 0 0 0 0 0 0 0 0
Neighs:    80399 ave 80399 max 80399 min
Histogram: 1 0 0 0 0 0 0 0 0 0

Total # of neighbors = 80399
Ave neighs/atom = 58.5999
Ave special neighs/atom = 0
Neighbor list builds = 19
Dangerous builds = 0
WARNING: New thermo_style command, previous thermo_modify settings will be lost (../output.cpp:705)
Setting up Verlet run ...
  Unit style    : metal
  Current step  : 0
  Time step     : 0.001
Per MPI rank memory allocation (min/avg/max) = 6.055 | 6.055 | 6.055 Mbytes
Step Temp PotEng Press f_avp[1] f_avp[2] f_avp[3] f_avp[4] f_avp[5] f_avp[6] 
       0    1418.9669   -4169.7289    29609.562            0            0            0            0            0            0 
     100    1462.2655   -4159.4089    29864.735    26900.685    33922.973    27512.826     2163.847    517.91554   -246.04511 
     200    1487.5289   -4144.8994    33734.714     27881.84    35923.396     30566.12    1535.9711    192.45389    538.49647 
     300    1424.5949   -4138.0514    33371.845    32251.697    35970.835    33149.533    786.81178     571.9766    541.00744 
Loop time of 1.06381 on 1 procs for 300 steps with 1372 atoms

Performance: 24.365 ns/day, 0.985 hours/ns, 282.005 timesteps/s
99.7% CPU use with 1 MPI tasks x 1 OpenMP threads

MPI task timing breakdown:
Section |  min time  |  avg time  |  max time  |%varavg| %total
---------------------------------------------------------------
Pair    | 0.87474    | 0.87474    | 0.87474    |   0.0 | 82.23
Bond    | 2.7526e-05 | 2.7526e-05 | 2.7526e-05 |   0.0 |  0.00
Neigh   | 0.16411    | 0.16411    | 0.16411    |   0.0 | 15.43
Comm    | 0.0042678  | 0.0042678  | 0.0042678  |   0.0 |  0.40
Output  | 6.5604e-05 | 6.5604e-05 | 6.5604e-05 |   0.0 |  0.01
Modify  | 0.018913   | 0.018913   | 0.018913   |   0.0 |  1.78
Other   |            | 0.001683   |            |       |  0.16

Nlocal:    1372 ave 1372 max 1372 min
Histogram: 1 0 0 0 0 0 0 0 0 0
Nghost:    3409 ave 3409 max 3409 min
Histogram: 1 0 0 0 0 0 0 0 0 0
Neighs:    80054 ave 80054 max 80054 min
Histogram: 1 0 0 0 0 0 0 0 0 0

Total # of neighbors = 80054
Ave neighs/atom = 58.3484
Ave special neighs/atom = 0
Neighbor list builds = 5
Dangerous builds = 0
OMP_NUM_THREADS environment is not set. Defaulting to 1 thread. (../comm.cpp:88)
  using 1 OpenMP thread(s) per MPI task
Reading restart file ...
  restart file = 30 Apr 2019, LAMMPS = 30 Apr 2019
  restoring atom style full from restart
  orthogonal box = (0 0 0) to (25.922 25.922 25.922)
  1 by 1 by 1 MPI processor grid
  pair style eam/fs stores no restart info
  1372 atoms
Finding 1-2 1-3 1-4 neighbors ...
  special bond factors lj:   0          0          0         
  special bond factors coul: 0          0          0         
  0 = max # of 1-2 neighbors
  0 = max # of 1-3 neighbors
  0 = max # of 1-4 neighbors
  1 = max # of special neighbors
  special bonds CPU = 0.000141964 secs
  read_restart CPU = 0.000981119 secs
Changing box ...
  triclinic box = (0 0 0) to (25.922 25.922 25.922) with tilt (0 0 0)
Changing box ...
  triclinic box = (0 0 0) to (25.922 26.4404 25.922) with tilt (0 0 0)
  triclinic box = (0 0 0) to (25.922 26.4404 25.922) with tilt (0 0 0)
Neighbor list info ...
  update every 1 steps, delay 0 steps, check yes
  max neighbors/atom: 2000, page size: 100000
  master list distance cutoff = 7
  ghost atom cutoff = 7
  1 neighbor lists, perpetual/occasional/extra = 1 0 0
  (1) pair eam/fs, perpetual
      attributes: half, newton on
      pair build: half/nsq/newton
      stencil: none
      bin: none
Setting up Verlet run ...
  Unit style    : metal
  Current step  : 0
  Time step     : 0.001
Per MPI rank memory allocation (min/avg/max) = 6.028 | 6.028 | 6.028 Mbytes
Step Temp PotEng Press f_avp[1] f_avp[2] f_avp[3] f_avp[4] f_avp[5] f_avp[6] 
       0    1428.6257    -4174.566   -23060.004            0            0            0            0            0            0 
     100    1448.0801   -4117.4091   -12383.992   -15885.212   -17638.709   -15934.529    407.22904    2002.9553   -426.27268 
     200     1469.385   -4080.4681   -3665.0475   -10412.541   -6773.9963   -7014.6495    161.93115    1718.3099   -278.63349 
     300    1402.7648   -4052.8138      725.276   -2833.4884    899.36391    603.42278    -839.8888    1910.2427    55.990665 
     400    1458.2771   -4073.9749   -2141.6422    1420.0933   -325.76195    1965.5964   -44.140603    1602.9193   -73.600308 
     500    1543.7154   -4095.3505   -3972.3629   -3155.2392   -5955.7455   -2747.2902    722.71761    2224.5451   -907.08506 
     600    1556.5106   -4102.8647   -6171.8703   -6455.9798   -5792.7008   -3869.0182   -1079.2222    500.79243   -2000.8653 
     700    1483.5757   -4112.4209   -8728.3701   -9712.5882   -6234.8528   -7295.3626   -705.82914   -123.30575   -1067.7556 
     800    1504.1282   -4118.8506   -8948.7664   -10361.542   -10487.562   -8909.9309   -169.64862   -192.99746    -2333.588 
     900    1466.8647   -4123.2224   -12035.629   -10628.002   -11403.353   -10676.095   -1576.4081   -1299.8305   -1584.0663 
    1000    1417.3655   -4134.1534   -13473.979   -12085.862   -12593.632   -12526.751   -1707.5894   -210.12109   -1616.6711 
Loop time of 3.49297 on 1 procs for 1000 steps with 1372 atoms

Performance: 24.735 ns/day, 0.970 hours/ns, 286.290 timesteps/s
99.7% CPU use with 1 MPI tasks x 1 OpenMP threads

MPI task timing breakdown:
Section |  min time  |  avg time  |  max time  |%varavg| %total
---------------------------------------------------------------
Pair    | 2.7998     | 2.7998     | 2.7998     |   0.0 | 80.16
Bond    | 9.3549e-05 | 9.3549e-05 | 9.3549e-05 |   0.0 |  0.00
Neigh   | 0.61266    | 0.61266    | 0.61266    |   0.0 | 17.54
Comm    | 0.014117   | 0.014117   | 0.014117   |   0.0 |  0.40
Output  | 0.0001995  | 0.0001995  | 0.0001995  |   0.0 |  0.01
Modify  | 0.060517   | 0.060517   | 0.060517   |   0.0 |  1.73
Other   |            | 0.005539   |            |       |  0.16

Nlocal:    1372 ave 1372 max 1372 min
Histogram: 1 0 0 0 0 0 0 0 0 0
Nghost:    3314 ave 3314 max 3314 min
Histogram: 1 0 0 0 0 0 0 0 0 0
Neighs:    76146 ave 76146 max 76146 min
Histogram: 1 0 0 0 0 0 0 0 0 0

Total # of neighbors = 76146
Ave neighs/atom = 55.5
Ave special neighs/atom = 0
Neighbor list builds = 19
Dangerous builds = 0
WARNING: New thermo_style command, previous thermo_modify settings will be lost (../output.cpp:705)
Setting up Verlet run ...
  Unit style    : metal
  Current step  : 0
  Time step     : 0.001
Per MPI rank memory allocation (min/avg/max) = 6.053 | 6.053 | 6.053 Mbytes
Step Temp PotEng Press f_avp[1] f_avp[2] f_avp[3] f_avp[4] f_avp[5] f_avp[6] 
       0    1417.3655   -4134.1534   -13473.979            0            0            0            0            0            0 
     100    1463.3955   -4122.5299   -12638.412   -14184.401   -13262.968   -13235.237    1688.8155    466.02109   -734.08341 
     200    1487.4212   -4108.3255   -7992.1315    -12463.04   -9982.5861   -9446.0093    1058.3444    440.03682     272.4219 
     300    1424.4767   -4099.5045   -7188.4258   -7688.6872    -7556.771   -6525.7319    493.83464    586.37177    202.78358 
Loop time of 1.05597 on 1 procs for 300 steps with 1372 atoms

Performance: 24.546 ns/day, 0.978 hours/ns, 284.099 timesteps/s
99.7% CPU use with 1 MPI tasks x 1 OpenMP threads

MPI task timing breakdown:
Section |  min time  |  avg time  |  max time  |%varavg| %total
---------------------------------------------------------------
Pair    | 0.83927    | 0.83927    | 0.83927    |   0.0 | 79.48
Bond    | 2.7923e-05 | 2.7923e-05 | 2.7923e-05 |   0.0 |  0.00
Neigh   | 0.19255    | 0.19255    | 0.19255    |   0.0 | 18.23
Comm    | 0.0042507  | 0.0042507  | 0.0042507  |   0.0 |  0.40
Output  | 7.9496e-05 | 7.9496e-05 | 7.9496e-05 |   0.0 |  0.01
Modify  | 0.018119   | 0.018119   | 0.018119   |   0.0 |  1.72
Other   |            | 0.001675   |            |       |  0.16

Nlocal:    1372 ave 1372 max 1372 min
Histogram: 1 0 0 0 0 0 0 0 0 0
Nghost:    3346 ave 3346 max 3346 min
Histogram: 1 0 0 0 0 0 0 0 0 0
Neighs:    75979 ave 75979 max 75979 min
Histogram: 1 0 0 0 0 0 0 0 0 0

Total # of neighbors = 75979
Ave neighs/atom = 55.3783
Ave special neighs/atom = 0
Neighbor list builds = 6
Dangerous builds = 0
OMP_NUM_THREADS environment is not set. Defaulting to 1 thread. (../comm.cpp:88)
  using 1 OpenMP thread(s) per MPI task
Reading restart file ...
  restart file = 30 Apr 2019, LAMMPS = 30 Apr 2019
  restoring atom style full from restart
  orthogonal box = (0 0 0) to (25.922 25.922 25.922)
  1 by 1 by 1 MPI processor grid
  pair style eam/fs stores no restart info
  1372 atoms
Finding 1-2 1-3 1-4 neighbors ...
  special bond factors lj:   0          0          0         
  special bond factors coul: 0          0          0         
  0 = max # of 1-2 neighbors
  0 = max # of 1-3 neighbors
  0 = max # of 1-4 neighbors
  1 = max # of special neighbors
  special bonds CPU = 0.000132663 secs
  read_restart CPU = 0.000518361 secs
Changing box ...
  triclinic box = (0 0 0) to (25.922 25.922 25.922) with tilt (0 0 0)
Changing box ...
  triclinic box = (0 0 0) to (25.922 25.922 25.4035) with tilt (0 0 0)
Neighbor list info ...
  update every 1 steps, delay 0 steps, check yes
  max neighbors/atom: 2000, page size: 100000
  master list distance cutoff = 7
  ghost atom cutoff = 7
  1 neighbor lists, perpetual/occasional/extra = 1 0 0
  (1) pair eam/fs, perpetual
      attributes: half, newton on
      pair build: half/nsq/newton
      stencil: none
      bin: none
Setting up Verlet run ...
  Unit style    : metal
  Current step  : 0
  Time step     : 0.001
Per MPI rank memory allocation (min/avg/max) = 6.03 | 6.03 | 6.03 Mbytes
Step Temp PotEng Press f_avp[1] f_avp[2] f_avp[3] f_avp[4] f_avp[5] f_avp[6] 
       0    1428.6257   -4179.9421    28185.095            0            0            0            0            0            0 
     100    1447.8216   -4132.4777    34211.096     28333.06    33683.486    34524.705    281.93713    2103.7596   -388.35584 
     200    1469.2081   -4098.9938    41025.919    31969.503    41422.461     39887.79   -102.81261    1612.4697   -246.03988 
     300    1403.8177   -4077.7733    42571.939    37962.923     45357.53    44340.605   -939.02216    1874.2041   -72.244585 
     400    1459.0092   -4102.8282    39601.716    41691.609    42474.146    44284.849    30.094213     1405.354   -250.46806 
     500     1543.262   -4125.6357    38478.065    37287.501    37694.233    40509.613    842.81536    1855.2772   -1135.4539 
     600    1555.7909   -4134.6515    36623.485    33739.983    38191.409    39443.968   -1073.2739     222.7984   -2196.7911 
     700    1486.1841     -4145.32    33976.542    30615.669    37880.265    36034.464   -449.92465   -166.42645    -1292.973 
     800    1502.7765   -4152.0021    34054.151    30682.729    33670.378    34420.916     155.7587   -25.417681   -2637.6465 
     900    1468.5498   -4158.5239    30938.087    30082.095    33048.611    33125.835    -1557.452   -1089.9765   -1636.1327 
    1000    1418.4597   -4170.0634    29624.512     28663.46    32212.716     31409.32   -1409.9499   -39.499094   -1539.2368 
Loop time of 3.5091 on 1 procs for 1000 steps with 1372 atoms

Performance: 24.622 ns/day, 0.975 hours/ns, 284.973 timesteps/s
99.6% CPU use with 1 MPI tasks x 1 OpenMP threads

MPI task timing breakdown:
Section |  min time  |  avg time  |  max time  |%varavg| %total
---------------------------------------------------------------
Pair    | 2.8056     | 2.8056     | 2.8056     |   0.0 | 79.95
Bond    | 9.1818e-05 | 9.1818e-05 | 9.1818e-05 |   0.0 |  0.00
Neigh   | 0.62282    | 0.62282    | 0.62282    |   0.0 | 17.75
Comm    | 0.014156   | 0.014156   | 0.014156   |   0.0 |  0.40
Output  | 0.00020527 | 0.00020527 | 0.00020527 |   0.0 |  0.01
Modify  | 0.060697   | 0.060697   | 0.060697   |   0.0 |  1.73
Other   |            | 0.005524   |            |       |  0.16

Nlocal:    1372 ave 1372 max 1372 min
Histogram: 1 0 0 0 0 0 0 0 0 0
Nghost:    3357 ave 3357 max 3357 min
Histogram: 1 0 0 0 0 0 0 0 0 0
Neighs:    80359 ave 80359 max 80359 min
Histogram: 1 0 0 0 0 0 0 0 0 0

Total # of neighbors = 80359
Ave neighs/atom = 58.5707
Ave special neighs/atom = 0
Neighbor list builds = 19
Dangerous builds = 0
WARNING: New thermo_style command, previous thermo_modify settings will be lost (../output.cpp:705)
Setting up Verlet run ...
  Unit style    : metal
  Current step  : 0
  Time step     : 0.001
Per MPI rank memory allocation (min/avg/max) = 6.055 | 6.055 | 6.055 Mbytes
Step Temp PotEng Press f_avp[1] f_avp[2] f_avp[3] f_avp[4] f_avp[5] f_avp[6] 
       0    1418.4597   -4170.0634    29624.512            0            0            0            0            0            0 
     100    1462.0924   -4159.7937    29845.614    26761.547     31324.99    30044.653    1789.0202     442.9087   -220.10697 
     200    1486.8286   -4145.0669    33851.985    27763.138    33677.523     32893.61    1205.8006     283.8794    504.81347 
     300     1424.117   -4138.2112    33290.921    32098.731    34438.466    34940.389    446.71497    848.27131    266.43241 
Loop time of 1.07442 on 1 procs for 300 steps with 1372 atoms

Performance: 24.125 ns/day, 0.995 hours/ns, 279.221 timesteps/s
99.6% CPU use with 1 MPI tasks x 1 OpenMP threads

MPI task timing breakdown:
Section |  min time  |  avg time  |  max time  |%varavg| %total
---------------------------------------------------------------
Pair    | 0.88529    | 0.88529    | 0.88529    |   0.0 | 82.40
Bond    | 2.5982e-05 | 2.5982e-05 | 2.5982e-05 |   0.0 |  0.00
Neigh   | 0.16499    | 0.16499    | 0.16499    |   0.0 | 15.36
Comm    | 0.0041702  | 0.0041702  | 0.0041702  |   0.0 |  0.39
Output  | 6.0102e-05 | 6.0102e-05 | 6.0102e-05 |   0.0 |  0.01
Modify  | 0.01823    | 0.01823    | 0.01823    |   0.0 |  1.70
Other   |            | 0.001655   |            |       |  0.15

Nlocal:    1372 ave 1372 max 1372 min
Histogram: 1 0 0 0 0 0 0 0 0 0
Nghost:    3371 ave 3371 max 3371 min
Histogram: 1 0 0 0 0 0 0 0 0 0
Neighs:    80090 ave 80090 max 80090 min
Histogram: 1 0 0 0 0 0 0 0 0 0

Total # of neighbors = 80090
Ave neighs/atom = 58.3746
Ave special neighs/atom = 0
Neighbor list builds = 5
Dangerous builds = 0
OMP_NUM_THREADS environment is not set. Defaulting to 1 thread. (../comm.cpp:88)
  using 1 OpenMP thread(s) per MPI task
Reading restart file ...
  restart file = 30 Apr 2019, LAMMPS = 30 Apr 2019
  restoring atom style full from restart
  orthogonal box = (0 0 0) to (25.922 25.922 25.922)
  1 by 1 by 1 MPI processor grid
  pair style eam/fs stores no restart info
  1372 atoms
Finding 1-2 1-3 1-4 neighbors ...
  special bond factors lj:   0          0          0         
  special bond factors coul: 0          0          0         
  0 = max # of 1-2 neighbors
  0 = max # of 1-3 neighbors
  0 = max # of 1-4 neighbors
  1 = max # of special neighbors
  special bonds CPU = 0.000123087 secs
  read_restart CPU = 0.00164353 secs
Changing box ...
  triclinic box = (0 0 0) to (25.922 25.922 25.922) with tilt (0 0 0)
Changing box ...
  triclinic box = (0 0 0) to (25.922 25.922 26.4404) with tilt (0 0 0)
Neighbor list info ...
  update every 1 steps, delay 0 steps, check yes
  max neighbors/atom: 2000, page size: 100000
  master list distance cutoff = 7
  ghost atom cutoff = 7
  1 neighbor lists, perpetual/occasional/extra = 1 0 0
  (1) pair eam/fs, perpetual
      attributes: half, newton on
      pair build: half/nsq/newton
      stencil: none
      bin: none
Setting up Verlet run ...
  Unit style    : metal
  Current step  : 0
  Time step     : 0.001
Per MPI rank memory allocation (min/avg/max) = 6.028 | 6.028 | 6.028 Mbytes
Step Temp PotEng Press f_avp[1] f_avp[2] f_avp[3] f_avp[4] f_avp[5] f_avp[6] 
       0    1428.6257    -4173.778   -22938.273            0            0            0            0            0            0 
     100    1448.2047   -4116.4451   -12336.396   -15841.177   -10765.946   -22827.473    446.16379    1795.2166   -563.68101 
     200    1469.3403   -4080.0451   -3707.8933   -10379.248   -1225.5619   -12287.579    36.395407    1453.6118   -217.01073 
     300    1403.1431   -4052.8987    527.25083   -2915.7158    4512.5186   -3462.8926   -765.91511    1607.6723     36.91204 
     400    1458.2328   -4073.7161   -2038.9847    1660.2495     2276.354   -1028.2083    4.7195074    1455.3409   -3.0976805 
     500    1542.8618   -4095.1502   -3718.2427   -2807.8136   -3077.0472   -5546.3796    1093.3629    1915.0822   -887.08711 
     600    1555.9043   -4102.1576   -5977.6817   -6101.2577   -2718.1885    -7085.021    -809.7429    127.38047   -1991.9069 
     700    1483.7775   -4112.5571   -8777.6707   -9514.4546   -3138.1498   -10707.698   -441.84413   -515.86018   -876.03319 
     800    1504.4345   -4118.1349   -9129.4348   -10134.967   -7455.7827     -12542.8    91.151943   -480.37656    -2353.956 
     900    1465.6007   -4122.4899   -11807.968   -10301.033   -8268.2892   -13982.214   -1179.8756   -1393.7056   -1574.0444 
    1000    1417.8832   -4133.6492   -13387.463   -11487.744   -9367.4779   -15616.509    -1273.695    -364.7074   -1657.8306 
Loop time of 3.34568 on 1 procs for 1000 steps with 1372 atoms

Performance: 25.824 ns/day, 0.929 hours/ns, 298.893 timesteps/s
99.6% CPU use with 1 MPI tasks x 1 OpenMP threads

MPI task timing breakdown:
Section |  min time  |  avg time  |  max time  |%varavg| %total
---------------------------------------------------------------
Pair    | 2.6565     | 2.6565     | 2.6565     |   0.0 | 79.40
Bond    | 9.4664e-05 | 9.4664e-05 | 9.4664e-05 |   0.0 |  0.00
Neigh   | 0.60906    | 0.60906    | 0.60906    |   0.0 | 18.20
Comm    | 0.013994   | 0.013994   | 0.013994   |   0.0 |  0.42
Output  | 0.00020556 | 0.00020556 | 0.00020556 |   0.0 |  0.01
Modify  | 0.060299   | 0.060299   | 0.060299   |   0.0 |  1.80
Other   |            | 0.005522   |            |       |  0.17

Nlocal:    1372 ave 1372 max 1372 min
Histogram: 1 0 0 0 0 0 0 0 0 0
Nghost:    3317 ave 3317 max 3317 min
Histogram: 1 0 0 0 0 0 0 0 0 0
Neighs:    76234 ave 76234 max 76234 min
Histogram: 1 0 0 0 0 0 0 0 0 0

Total # of neighbors = 76234
Ave neighs/atom = 55.5641
Ave special neighs/atom = 0
Neighbor list builds = 19
Dangerous builds = 0
WARNING: New thermo_style command, previous thermo_modify settings will be lost (../output.cpp:705)
Setting up Verlet run ...
  Unit style    : metal
  Current step  : 0
  Time step     : 0.001
Per MPI rank memory allocation (min/avg/max) = 6.052 | 6.052 | 6.052 Mbytes
Step Temp PotEng Press f_avp[1] f_avp[2] f_avp[3] f_avp[4] f_avp[5] f_avp[6] 
       0    1417.8832   -4133.6492   -13387.463            0            0            0            0            0            0 
     100     1464.032   -4121.4699   -12488.029   -13797.831   -10152.025   -15855.986    2102.6641    484.56105   -727.73263 
     200    1488.2273    -4107.887   -7945.9701   -12408.681   -7222.8535   -11933.302    1366.2268    312.98178    239.15417 
     300    1424.4482   -4098.8993   -7053.3379   -7499.2872   -5511.1542   -8232.2967     810.1928    183.18388     247.8459 
Loop time of 1.02031 on 1 procs for 300 steps with 1372 atoms

Performance: 25.404 ns/day, 0.945 hours/ns, 294.029 timesteps/s
99.6% CPU use with 1 MPI tasks x 1 OpenMP threads

MPI task timing breakdown:
Section |  min time  |  avg time  |  max time  |%varavg| %total
---------------------------------------------------------------
Pair    | 0.83772    | 0.83772    | 0.83772    |   0.0 | 82.10
Bond    | 2.9601e-05 | 2.9601e-05 | 2.9601e-05 |   0.0 |  0.00
Neigh   | 0.15882    | 0.15882    | 0.15882    |   0.0 | 15.57
Comm    | 0.0040841  | 0.0040841  | 0.0040841  |   0.0 |  0.40
Output  | 6.1734e-05 | 6.1734e-05 | 6.1734e-05 |   0.0 |  0.01
Modify  | 0.017975   | 0.017975   | 0.017975   |   0.0 |  1.76
Other   |            | 0.001619   |            |       |  0.16

Nlocal:    1372 ave 1372 max 1372 min
Histogram: 1 0 0 0 0 0 0 0 0 0
Nghost:    3346 ave 3346 max 3346 min
Histogram: 1 0 0 0 0 0 0 0 0 0
Neighs:    76010 ave 76010 max 76010 min
Histogram: 1 0 0 0 0 0 0 0 0 0

Total # of neighbors = 76010
Ave neighs/atom = 55.4009
Ave special neighs/atom = 0
Neighbor list builds = 5
Dangerous builds = 0
OMP_NUM_THREADS environment is not set. Defaulting to 1 thread. (../comm.cpp:88)
  using 1 OpenMP thread(s) per MPI task
Reading restart file ...
  restart file = 30 Apr 2019, LAMMPS = 30 Apr 2019
  restoring atom style full from restart
  orthogonal box = (0 0 0) to (25.922 25.922 25.922)
  1 by 1 by 1 MPI processor grid
  pair style eam/fs stores no restart info
  1372 atoms
Finding 1-2 1-3 1-4 neighbors ...
  special bond factors lj:   0          0          0         
  special bond factors coul: 0          0          0         
  0 = max # of 1-2 neighbors
  0 = max # of 1-3 neighbors
  0 = max # of 1-4 neighbors
  1 = max # of special neighbors
  special bonds CPU = 0.000127937 secs
  read_restart CPU = 0.000767413 secs
Changing box ...
  triclinic box = (0 0 0) to (25.922 25.922 25.922) with tilt (0 0 0)
Changing box ...
  triclinic box = (0 0 0) to (25.922 25.922 25.922) with tilt (0 0 -0.518439)
Neighbor list info ...
  update every 1 steps, delay 0 steps, check yes
  max neighbors/atom: 2000, page size: 100000
  master list distance cutoff = 7
  ghost atom cutoff = 7
  1 neighbor lists, perpetual/occasional/extra = 1 0 0
  (1) pair eam/fs, perpetual
      attributes: half, newton on
      pair build: half/nsq/newton
      stencil: none
      bin: none
Setting up Verlet run ...
  Unit style    : metal
  Current step  : 0
  Time step     : 0.001
Per MPI rank memory allocation (min/avg/max) = 6.028 | 6.028 | 6.028 Mbytes
Step Temp PotEng Press f_avp[1] f_avp[2] f_avp[3] f_avp[4] f_avp[5] f_avp[6] 
       0    1428.6257   -4178.6667     2034.144            0            0            0            0            0            0 
     100    1447.5127   -4126.6529    10404.803    5487.0093    10726.971    5819.2135    260.78236     1905.045    10025.974 
     200    1469.5282    -4091.393    18059.283     9861.972    19313.338    13629.107   -191.31292    1530.3115    8815.2207 
     300    1404.3811   -4067.3502    20716.534    16518.656    23946.874    20134.252    -998.4945     1688.934    7649.0862 
     400    1458.9284   -4090.2743    17970.714    20637.651    21351.578    21198.856   -104.06272    1429.8528      7162.09 
     500    1543.7021   -4112.2721    16645.777     16208.59    16354.214    17051.015     750.2799    1785.3735    6696.3508 
     600    1555.4965    -4120.312    14532.378    12877.562    16816.726    15626.502   -1168.9081    88.686099    5772.3651 
     700     1486.236   -4131.4148    11587.275     9590.096    16393.137    11915.552   -671.89994   -358.72426    7067.5543 
     800    1503.2332   -4137.4612    11681.002    9225.8098    12103.602    10319.448   -46.688918    -185.5425    5617.0866 
     900    1467.4141   -4142.8472    8695.5917    9011.3746    11499.706    8882.5364   -1369.4964   -1170.7347    6732.0968 
    1000    1418.6361   -4153.7943    7398.0838    7671.4951    10516.013    7062.1264   -1254.5931   -189.32398    6912.3358 
Loop time of 3.39119 on 1 procs for 1000 steps with 1372 atoms

Performance: 25.478 ns/day, 0.942 hours/ns, 294.882 timesteps/s
99.7% CPU use with 1 MPI tasks x 1 OpenMP threads

MPI task timing breakdown:
Section |  min time  |  avg time  |  max time  |%varavg| %total
---------------------------------------------------------------
Pair    | 2.6971     | 2.6971     | 2.6971     |   0.0 | 79.53
Bond    | 9.8485e-05 | 9.8485e-05 | 9.8485e-05 |   0.0 |  0.00
Neigh   | 0.61384    | 0.61384    | 0.61384    |   0.0 | 18.10
Comm    | 0.014088   | 0.014088   | 0.014088   |   0.0 |  0.42
Output  | 0.00020879 | 0.00020879 | 0.00020879 |   0.0 |  0.01
Modify  | 0.060277   | 0.060277   | 0.060277   |   0.0 |  1.78
Other   |            | 0.005533   |            |       |  0.16

Nlocal:    1372 ave 1372 max 1372 min
Histogram: 1 0 0 0 0 0 0 0 0 0
Nghost:    3326 ave 3326 max 3326 min
Histogram: 1 0 0 0 0 0 0 0 0 0
Neighs:    78234 ave 78234 max 78234 min
Histogram: 1 0 0 0 0 0 0 0 0 0

Total # of neighbors = 78234
Ave neighs/atom = 57.0219
Ave special neighs/atom = 0
Neighbor list builds = 19
Dangerous builds = 0
WARNING: New thermo_style command, previous thermo_modify settings will be lost (../output.cpp:705)
Setting up Verlet run ...
  Unit style    : metal
  Current step  : 0
  Time step     : 0.001
Per MPI rank memory allocation (min/avg/max) = 6.054 | 6.054 | 6.054 Mbytes
Step Temp PotEng Press f_avp[1] f_avp[2] f_avp[3] f_avp[4] f_avp[5] f_avp[6] 
       0    1418.6361   -4153.7943    7398.0838            0            0            0            0            0            0 
     100    1462.8691   -4142.5273    7828.5142    5376.6965    10042.374    6484.8408    2078.7465     381.9992    7973.9554 
     200    1487.8469   -4128.5508    12184.592    6497.3265    12543.007    9808.6402    1271.5342    225.72059    8275.4584 
     300    1424.5972   -4120.7134    12197.697    11171.508    13419.156    12574.004    652.94216    324.51022     7513.366 
Loop time of 1.01399 on 1 procs for 300 steps with 1372 atoms

Performance: 25.562 ns/day, 0.939 hours/ns, 295.862 timesteps/s
99.7% CPU use with 1 MPI tasks x 1 OpenMP threads

MPI task timing breakdown:
Section |  min time  |  avg time  |  max time  |%varavg| %total
---------------------------------------------------------------
Pair    | 0.83029    | 0.83029    | 0.83029    |   0.0 | 81.88
Bond    | 2.7281e-05 | 2.7281e-05 | 2.7281e-05 |   0.0 |  0.00
Neigh   | 0.15979    | 0.15979    | 0.15979    |   0.0 | 15.76
Comm    | 0.0041171  | 0.0041171  | 0.0041171  |   0.0 |  0.41
Output  | 6.645e-05  | 6.645e-05  | 6.645e-05  |   0.0 |  0.01
Modify  | 0.018047   | 0.018047   | 0.018047   |   0.0 |  1.78
Other   |            | 0.001643   |            |       |  0.16

Nlocal:    1372 ave 1372 max 1372 min
Histogram: 1 0 0 0 0 0 0 0 0 0
Nghost:    3368 ave 3368 max 3368 min
Histogram: 1 0 0 0 0 0 0 0 0 0
Neighs:    77979 ave 77979 max 77979 min
Histogram: 1 0 0 0 0 0 0 0 0 0

Total # of neighbors = 77979
Ave neighs/atom = 56.836
Ave special neighs/atom = 0
Neighbor list builds = 5
Dangerous builds = 0
OMP_NUM_THREADS environment is not set. Defaulting to 1 thread. (../comm.cpp:88)
  using 1 OpenMP thread(s) per MPI task
Reading restart file ...
  restart file = 30 Apr 2019, LAMMPS = 30 Apr 2019
  restoring atom style full from restart
  orthogonal box = (0 0 0) to (25.922 25.922 25.922)
  1 by 1 by 1 MPI processor grid
  pair style eam/fs stores no restart info
  1372 atoms
Finding 1-2 1-3 1-4 neighbors ...
  special bond factors lj:   0          0          0         
  special bond factors coul: 0          0          0         
  0 = max # of 1-2 neighbors
  0 = max # of 1-3 neighbors
  0 = max # of 1-4 neighbors
  1 = max # of special neighbors
  special bonds CPU = 0.000125393 secs
  read_restart CPU = 0.000576184 secs
Changing box ...
  triclinic box = (0 0 0) to (25.922 25.922 25.922) with tilt (0 0 0)
Changing box ...
  triclinic box = (0 0 0) to (25.922 25.922 25.922) with tilt (0 0 0.518439)
Neighbor list info ...
  update every 1 steps, delay 0 steps, check yes
  max neighbors/atom: 2000, page size: 100000
  master list distance cutoff = 7
  ghost atom cutoff = 7
  1 neighbor lists, perpetual/occasional/extra = 1 0 0
  (1) pair eam/fs, perpetual
      attributes: half, newton on
      pair build: half/nsq/newton
      stencil: none
      bin: none
Setting up Verlet run ...
  Unit style    : metal
  Current step  : 0
  Time step     : 0.001
Per MPI rank memory allocation (min/avg/max) = 6.028 | 6.028 | 6.028 Mbytes
Step Temp PotEng Press f_avp[1] f_avp[2] f_avp[3] f_avp[4] f_avp[5] f_avp[6] 
       0    1428.6257   -4179.1818    2137.4657            0            0            0            0            0            0 
     100    1448.3729   -4126.0699    10345.542    5340.5871    10761.848    5618.4924    486.01331     2030.345   -11013.956 
     200    1468.9276   -4091.3864    17917.724    9867.2088    19261.442    13584.724    134.77015    1540.5987   -9299.1858 
     300    1402.4505   -4066.9318    20781.961    16501.783    24138.403    20170.257   -715.21094    1833.6038   -7675.8626 
     400    1458.4287   -4089.7378    18085.539    20572.356    21468.985    21510.708    125.11524    1451.9866   -7474.9245 
     500    1542.3266   -4112.1706    16577.142    16178.401    16358.657    17291.114    1194.8424     2056.455   -8724.3814 
     600    1556.1947   -4120.3293    14571.724    12747.293    16812.404     16128.93   -737.92857    377.68636   -9992.1874 
     700    1483.5901   -4130.5423    11936.992    9428.4851    16478.773    12687.598    -224.8503    -356.2738   -9311.1023 
     800    1503.5718   -4136.7285    11489.421    8960.4847    12244.052    10778.555    315.58107    -279.4209   -10697.661 
     900    1466.7607   -4142.1891    8633.9923    8286.9745    11401.429    9294.4565   -1358.4715   -1236.2787   -9971.4997 
    1000    1417.5902    -4154.072    7085.7598    7040.4469    10423.325    7614.1226   -1409.4708   -210.23754   -10166.241 
Loop time of 3.36848 on 1 procs for 1000 steps with 1372 atoms

Performance: 25.650 ns/day, 0.936 hours/ns, 296.870 timesteps/s
99.7% CPU use with 1 MPI tasks x 1 OpenMP threads

MPI task timing breakdown:
Section |  min time  |  avg time  |  max time  |%varavg| %total
---------------------------------------------------------------
Pair    | 2.6775     | 2.6775     | 2.6775     |   0.0 | 79.49
Bond    | 9.4544e-05 | 9.4544e-05 | 9.4544e-05 |   0.0 |  0.00
Neigh   | 0.61073    | 0.61073    | 0.61073    |   0.0 | 18.13
Comm    | 0.014039   | 0.014039   | 0.014039   |   0.0 |  0.42
Output  | 0.00021405 | 0.00021405 | 0.00021405 |   0.0 |  0.01
Modify  | 0.06029    | 0.06029    | 0.06029    |   0.0 |  1.79
Other   |            | 0.005611   |            |       |  0.17

Nlocal:    1372 ave 1372 max 1372 min
Histogram: 1 0 0 0 0 0 0 0 0 0
Nghost:    3323 ave 3323 max 3323 min
Histogram: 1 0 0 0 0 0 0 0 0 0
Neighs:    78224 ave 78224 max 78224 min
Histogram: 1 0 0 0 0 0 0 0 0 0

Total # of neighbors = 78224
Ave neighs/atom = 57.0146
Ave special neighs/atom = 0
Neighbor list builds = 19
Dangerous builds = 0
WARNING: New thermo_style command, previous thermo_modify settings will be lost (../output.cpp:705)
Setting up Verlet run ...
  Unit style    : metal
  Current step  : 0
  Time step     : 0.001
Per MPI rank memory allocation (min/avg/max) = 6.053 | 6.053 | 6.053 Mbytes
Step Temp PotEng Press f_avp[1] f_avp[2] f_avp[3] f_avp[4] f_avp[5] f_avp[6] 
       0    1417.5902    -4154.072    7085.7598            0            0            0            0            0            0 
     100     1462.748   -4143.3074     7688.096    5170.2839    9244.9549    6570.1384     1864.201    574.27358    -8964.247 
     200    1487.5809   -4128.8025    11875.444    6546.3713    12110.864    9932.2945    1352.1021     350.8036    -7503.657 
     300    1424.3004   -4120.6991    12072.111    11022.821    13492.754    12748.473    689.00186    674.19274   -6846.8414 
Loop time of 1.00813 on 1 procs for 300 steps with 1372 atoms

Performance: 25.711 ns/day, 0.933 hours/ns, 297.581 timesteps/s
99.5% CPU use with 1 MPI tasks x 1 OpenMP threads

MPI task timing breakdown:
Section |  min time  |  avg time  |  max time  |%varavg| %total
---------------------------------------------------------------
Pair    | 0.82409    | 0.82409    | 0.82409    |   0.0 | 81.74
Bond    | 2.723e-05  | 2.723e-05  | 2.723e-05  |   0.0 |  0.00
Neigh   | 0.16009    | 0.16009    | 0.16009    |   0.0 | 15.88
Comm    | 0.0041175  | 0.0041175  | 0.0041175  |   0.0 |  0.41
Output  | 6.2796e-05 | 6.2796e-05 | 6.2796e-05 |   0.0 |  0.01
Modify  | 0.018071   | 0.018071   | 0.018071   |   0.0 |  1.79
Other   |            | 0.001669   |            |       |  0.17

Nlocal:    1372 ave 1372 max 1372 min
Histogram: 1 0 0 0 0 0 0 0 0 0
Nghost:    3366 ave 3366 max 3366 min
Histogram: 1 0 0 0 0 0 0 0 0 0
Neighs:    77953 ave 77953 max 77953 min
Histogram: 1 0 0 0 0 0 0 0 0 0

Total # of neighbors = 77953
Ave neighs/atom = 56.8171
Ave special neighs/atom = 0
Neighbor list builds = 5
Dangerous builds = 0
OMP_NUM_THREADS environment is not set. Defaulting to 1 thread. (../comm.cpp:88)
  using 1 OpenMP thread(s) per MPI task
Reading restart file ...
  restart file = 30 Apr 2019, LAMMPS = 30 Apr 2019
  restoring atom style full from restart
  orthogonal box = (0 0 0) to (25.922 25.922 25.922)
  1 by 1 by 1 MPI processor grid
  pair style eam/fs stores no restart info
  1372 atoms
Finding 1-2 1-3 1-4 neighbors ...
  special bond factors lj:   0          0          0         
  special bond factors coul: 0          0          0         
  0 = max # of 1-2 neighbors
  0 = max # of 1-3 neighbors
  0 = max # of 1-4 neighbors
  1 = max # of special neighbors
  special bonds CPU = 0.000119009 secs
  read_restart CPU = 0.000560841 secs
Changing box ...
  triclinic box = (0 0 0) to (25.922 25.922 25.922) with tilt (0 0 0)
Changing box ...
  triclinic box = (0 0 0) to (25.922 25.922 25.922) with tilt (0 -0.518439 0)
Neighbor list info ...
  update every 1 steps, delay 0 steps, check yes
  max neighbors/atom: 2000, page size: 100000
  master list distance cutoff = 7
  ghost atom cutoff = 7
  1 neighbor lists, perpetual/occasional/extra = 1 0 0
  (1) pair eam/fs, perpetual
      attributes: half, newton on
      pair build: half/nsq/newton
      stencil: none
      bin: none
Setting up Verlet run ...
  Unit style    : metal
  Current step  : 0
  Time step     : 0.001
Per MPI rank memory allocation (min/avg/max) = 6.028 | 6.028 | 6.028 Mbytes
Step Temp PotEng Press f_avp[1] f_avp[2] f_avp[3] f_avp[4] f_avp[5] f_avp[6] 
       0    1428.6257   -4178.7815    2121.4539            0            0            0            0            0            0 
     100    1447.5952   -4125.9556      10314.3    5414.0549    10583.304    5884.9939    482.03288    12466.804   -575.91386 
     200    1469.1982   -4091.2987    17983.494    9905.7193     18974.48    13664.059    20.053247    10652.287   -268.03141 
     300    1403.4549   -4067.0794    20702.148    16612.426    23750.408    20250.651    -746.4055    9550.6807    -56.67461 
     400    1458.6622   -4089.8897     17877.79    20557.068    21112.515    21288.226    215.00503    8532.6305   -223.29846 
     500    1543.3355   -4112.3682    16404.272    16176.605    15903.965    17097.481    1142.8804    9557.2897   -1194.3205 
     600    1555.9769   -4120.4406     14502.48     12750.97    16370.396    15972.326   -760.35693    8109.1008   -2306.9227 
     700    1484.6405   -4131.2913    11717.004    9619.7418    16069.216    12407.932   -307.90074    7761.7818   -1193.0431 
     800    1504.4286   -4137.1263     11623.27    9381.2218    11862.645    10808.017    365.08624     8169.236   -2517.9957 
     900    1467.0663   -4142.4878    8710.8994    8878.3823    11310.097    9095.6058   -1065.1413    7058.1324   -1625.9652 
    1000     1418.434   -4153.5414    7271.9399    7616.5783    10438.269    7355.6685   -1195.4802    8148.3852   -1718.8444 
Loop time of 3.39498 on 1 procs for 1000 steps with 1372 atoms

Performance: 25.449 ns/day, 0.943 hours/ns, 294.552 timesteps/s
99.7% CPU use with 1 MPI tasks x 1 OpenMP threads

MPI task timing breakdown:
Section |  min time  |  avg time  |  max time  |%varavg| %total
---------------------------------------------------------------
Pair    | 2.7047     | 2.7047     | 2.7047     |   0.0 | 79.67
Bond    | 9.3466e-05 | 9.3466e-05 | 9.3466e-05 |   0.0 |  0.00
Neigh   | 0.6105     | 0.6105     | 0.6105     |   0.0 | 17.98
Comm    | 0.014039   | 0.014039   | 0.014039   |   0.0 |  0.41
Output  | 0.00021335 | 0.00021335 | 0.00021335 |   0.0 |  0.01
Modify  | 0.059965   | 0.059965   | 0.059965   |   0.0 |  1.77
Other   |            | 0.005449   |            |       |  0.16

Nlocal:    1372 ave 1372 max 1372 min
Histogram: 1 0 0 0 0 0 0 0 0 0
Nghost:    3320 ave 3320 max 3320 min
Histogram: 1 0 0 0 0 0 0 0 0 0
Neighs:    78201 ave 78201 max 78201 min
Histogram: 1 0 0 0 0 0 0 0 0 0

Total # of neighbors = 78201
Ave neighs/atom = 56.9978
Ave special neighs/atom = 0
Neighbor list builds = 19
Dangerous builds = 0
WARNING: New thermo_style command, previous thermo_modify settings will be lost (../output.cpp:705)
Setting up Verlet run ...
  Unit style    : metal
  Current step  : 0
  Time step     : 0.001
Per MPI rank memory allocation (min/avg/max) = 6.053 | 6.053 | 6.053 Mbytes
Step Temp PotEng Press f_avp[1] f_avp[2] f_avp[3] f_avp[4] f_avp[5] f_avp[6] 
       0     1418.434   -4153.5414    7271.9399            0            0            0            0            0            0 
     100    1463.0808   -4142.8483    7604.2889    5312.3594    9420.0046    6489.5267     2025.177    8792.6466   -764.50149 
     200    1487.9101   -4128.9797    11969.864    6426.9146    11961.285    9804.1033     1379.672    8124.9806    263.17862 
     300    1424.3226   -4121.0231    12121.174    11122.776     13243.06    12713.686     796.8987    7942.9963     221.2885 
Loop time of 0.99519 on 1 procs for 300 steps with 1372 atoms

Performance: 26.045 ns/day, 0.921 hours/ns, 301.450 timesteps/s
99.7% CPU use with 1 MPI tasks x 1 OpenMP threads

MPI task timing breakdown:
Section |  min time  |  avg time  |  max time  |%varavg| %total
---------------------------------------------------------------
Pair    | 0.8117     | 0.8117     | 0.8117     |   0.0 | 81.56
Bond    | 2.8172e-05 | 2.8172e-05 | 2.8172e-05 |   0.0 |  0.00
Neigh   | 0.15972    | 0.15972    | 0.15972    |   0.0 | 16.05
Comm    | 0.0041295  | 0.0041295  | 0.0041295  |   0.0 |  0.41
Output  | 5.9074e-05 | 5.9074e-05 | 5.9074e-05 |   0.0 |  0.01
Modify  | 0.017951   | 0.017951   | 0.017951   |   0.0 |  1.80
Other   |            | 0.001603   |            |       |  0.16

Nlocal:    1372 ave 1372 max 1372 min
Histogram: 1 0 0 0 0 0 0 0 0 0
Nghost:    3357 ave 3357 max 3357 min
Histogram: 1 0 0 0 0 0 0 0 0 0
Neighs:    77989 ave 77989 max 77989 min
Histogram: 1 0 0 0 0 0 0 0 0 0

Total # of neighbors = 77989
Ave neighs/atom = 56.8433
Ave special neighs/atom = 0
Neighbor list builds = 5
Dangerous builds = 0
OMP_NUM_THREADS environment is not set. Defaulting to 1 thread. (../comm.cpp:88)
  using 1 OpenMP thread(s) per MPI task
Reading restart file ...
  restart file = 30 Apr 2019, LAMMPS = 30 Apr 2019
  restoring atom style full from restart
  orthogonal box = (0 0 0) to (25.922 25.922 25.922)
  1 by 1 by 1 MPI processor grid
  pair style eam/fs stores no restart info
  1372 atoms
Finding 1-2 1-3 1-4 neighbors ...
  special bond factors lj:   0          0          0         
  special bond factors coul: 0          0          0         
  0 = max # of 1-2 neighbors
  0 = max # of 1-3 neighbors
  0 = max # of 1-4 neighbors
  1 = max # of special neighbors
  special bonds CPU = 0.000118514 secs
  read_restart CPU = 0.000806013 secs
Changing box ...
  triclinic box = (0 0 0) to (25.922 25.922 25.922) with tilt (0 0 0)
Changing box ...
  triclinic box = (0 0 0) to (25.922 25.922 25.922) with tilt (0 0.518439 0)
Neighbor list info ...
  update every 1 steps, delay 0 steps, check yes
  max neighbors/atom: 2000, page size: 100000
  master list distance cutoff = 7
  ghost atom cutoff = 7
  1 neighbor lists, perpetual/occasional/extra = 1 0 0
  (1) pair eam/fs, perpetual
      attributes: half, newton on
      pair build: half/nsq/newton
      stencil: none
      bin: none
Setting up Verlet run ...
  Unit style    : metal
  Current step  : 0
  Time step     : 0.001
Per MPI rank memory allocation (min/avg/max) = 6.028 | 6.028 | 6.028 Mbytes
Step Temp PotEng Press f_avp[1] f_avp[2] f_avp[3] f_avp[4] f_avp[5] f_avp[6] 
       0    1428.6257   -4179.0666    2051.0277            0            0            0            0            0            0 
     100    1448.2632   -4126.7239    10466.384    5649.4325    10698.446    5595.1358    278.58044   -8569.9822   -410.68592 
     200    1469.3058   -4091.3845    18062.201    10073.947    19391.492    13594.858   -65.236498   -7568.3884   -198.52253 
     300    1403.5207   -4067.1841    20813.872    16644.809    24131.567    20085.263    -947.7933   -6039.3342    72.054446 
     400    1458.6591   -4090.0882    18203.973    20907.928    21544.474    21409.192   -184.53332    -5655.599    -60.53287 
     500    1542.7264   -4111.9756    16881.194    16497.556     16617.63    17246.518    839.82026   -5676.4471   -827.31833 
     600    1555.6552    -4120.164    14636.773    13092.981    17076.703    15803.434   -1098.2046   -7650.4497   -1941.0799 
     700    1485.2402   -4130.6145    11854.198     9598.289    16579.272    12165.457    -565.7688   -8458.4275   -1062.6232 
     800     1502.486    -4137.142    11506.116    9012.2918    12186.653    10259.284   -61.784493   -8643.3558   -2561.9848 
     900    1467.0248   -4142.6131    8628.1701    8727.8035    11289.524     9107.573   -1620.2852   -9512.5171   -1666.2006 
    1000    1417.7939   -4154.3268    7333.8778    7459.3534     10265.58    7367.1979   -1477.9576   -8569.9088   -1628.0212 
Loop time of 3.40725 on 1 procs for 1000 steps with 1372 atoms

Performance: 25.358 ns/day, 0.946 hours/ns, 293.492 timesteps/s
99.7% CPU use with 1 MPI tasks x 1 OpenMP threads

MPI task timing breakdown:
Section |  min time  |  avg time  |  max time  |%varavg| %total
---------------------------------------------------------------
Pair    | 2.715      | 2.715      | 2.715      |   0.0 | 79.68
Bond    | 9.6069e-05 | 9.6069e-05 | 9.6069e-05 |   0.0 |  0.00
Neigh   | 0.61248    | 0.61248    | 0.61248    |   0.0 | 17.98
Comm    | 0.013913   | 0.013913   | 0.013913   |   0.0 |  0.41
Output  | 0.00020142 | 0.00020142 | 0.00020142 |   0.0 |  0.01
Modify  | 0.060042   | 0.060042   | 0.060042   |   0.0 |  1.76
Other   |            | 0.005474   |            |       |  0.16

Nlocal:    1372 ave 1372 max 1372 min
Histogram: 1 0 0 0 0 0 0 0 0 0
Nghost:    3328 ave 3328 max 3328 min
Histogram: 1 0 0 0 0 0 0 0 0 0
Neighs:    78229 ave 78229 max 78229 min
Histogram: 1 0 0 0 0 0 0 0 0 0

Total # of neighbors = 78229
Ave neighs/atom = 57.0182
Ave special neighs/atom = 0
Neighbor list builds = 19
Dangerous builds = 0
WARNING: New thermo_style command, previous thermo_modify settings will be lost (../output.cpp:705)
Setting up Verlet run ...
  Unit style    : metal
  Current step  : 0
  Time step     : 0.001
Per MPI rank memory allocation (min/avg/max) = 6.054 | 6.054 | 6.054 Mbytes
Step Temp PotEng Press f_avp[1] f_avp[2] f_avp[3] f_avp[4] f_avp[5] f_avp[6] 
       0    1417.7939   -4154.3268    7333.8778            0            0            0            0            0            0 
     100     1462.505   -4143.0249    7976.8338    5618.2366    9606.6399    6685.9868    1932.2897   -7841.8615   -317.15114 
     200     1487.485   -4128.2767    12255.485    6977.6177     12430.58    10118.781    1212.0913   -7517.2939    514.36801 
     300    1424.5692   -4120.3664    12100.134    11385.369    13416.828     12642.12     576.1626    -6868.733     426.8852 
Loop time of 1.00546 on 1 procs for 300 steps with 1372 atoms

Performance: 25.779 ns/day, 0.931 hours/ns, 298.372 timesteps/s
99.7% CPU use with 1 MPI tasks x 1 OpenMP threads

MPI task timing breakdown:
Section |  min time  |  avg time  |  max time  |%varavg| %total
---------------------------------------------------------------
Pair    | 0.82196    | 0.82196    | 0.82196    |   0.0 | 81.75
Bond    | 2.8555e-05 | 2.8555e-05 | 2.8555e-05 |   0.0 |  0.00
Neigh   | 0.15975    | 0.15975    | 0.15975    |   0.0 | 15.89
Comm    | 0.00408    | 0.00408    | 0.00408    |   0.0 |  0.41
Output  | 5.8926e-05 | 5.8926e-05 | 5.8926e-05 |   0.0 |  0.01
Modify  | 0.01796    | 0.01796    | 0.01796    |   0.0 |  1.79
Other   |            | 0.001618   |            |       |  0.16

Nlocal:    1372 ave 1372 max 1372 min
Histogram: 1 0 0 0 0 0 0 0 0 0
Nghost:    3364 ave 3364 max 3364 min
Histogram: 1 0 0 0 0 0 0 0 0 0
Neighs:    78011 ave 78011 max 78011 min
Histogram: 1 0 0 0 0 0 0 0 0 0

Total # of neighbors = 78011
Ave neighs/atom = 56.8593
Ave special neighs/atom = 0
Neighbor list builds = 5
Dangerous builds = 0
OMP_NUM_THREADS environment is not set. Defaulting to 1 thread. (../comm.cpp:88)
  using 1 OpenMP thread(s) per MPI task
Reading restart file ...
  restart file = 30 Apr 2019, LAMMPS = 30 Apr 2019
  restoring atom style full from restart
  orthogonal box = (0 0 0) to (25.922 25.922 25.922)
  1 by 1 by 1 MPI processor grid
  pair style eam/fs stores no restart info
  1372 atoms
Finding 1-2 1-3 1-4 neighbors ...
  special bond factors lj:   0          0          0         
  special bond factors coul: 0          0          0         
  0 = max # of 1-2 neighbors
  0 = max # of 1-3 neighbors
  0 = max # of 1-4 neighbors
  1 = max # of special neighbors
  special bonds CPU = 0.000118699 secs
  read_restart CPU = 0.000483892 secs
Changing box ...
  triclinic box = (0 0 0) to (25.922 25.922 25.922) with tilt (0 0 0)
Changing box ...
  triclinic box = (0 0 0) to (25.922 25.922 25.922) with tilt (-0.518439 0 0)
Neighbor list info ...
  update every 1 steps, delay 0 steps, check yes
  max neighbors/atom: 2000, page size: 100000
  master list distance cutoff = 7
  ghost atom cutoff = 7
  1 neighbor lists, perpetual/occasional/extra = 1 0 0
  (1) pair eam/fs, perpetual
      attributes: half, newton on
      pair build: half/nsq/newton
      stencil: none
      bin: none
Setting up Verlet run ...
  Unit style    : metal
  Current step  : 0
  Time step     : 0.001
Per MPI rank memory allocation (min/avg/max) = 6.028 | 6.028 | 6.028 Mbytes
Step Temp PotEng Press f_avp[1] f_avp[2] f_avp[3] f_avp[4] f_avp[5] f_avp[6] 
       0    1428.6257    -4178.994    2131.9765            0            0            0            0            0            0 
     100    1448.3857   -4126.2475    10290.468    5647.4694    11080.033    5209.4353    10813.201    2050.5373   -561.03164 
     200    1469.5716   -4091.4022    17982.947    9860.7928    19433.158    13201.822    8879.1393    1617.5004    -391.9154 
     300    1403.8009   -4067.0032    20746.601    16537.889    24280.224    19771.551    6681.7968    1864.8436   -105.97881 
     400    1458.3623   -4089.8743    18108.517    20645.538     21834.72      20986.9    7169.1303    1654.7258   -336.09052 
     500    1542.9001   -4112.4062    16572.365    16395.197    16873.754    16474.399    8798.7623    2224.6808   -1255.6312 
     600     1556.031   -4120.5751     14613.21    12985.815    17158.144    15186.053     7123.784     484.3713   -2348.7197 
     700       1484.6   -4130.8001    11913.339    9809.7456    17006.492    11814.852    7767.6628   -227.31427   -1390.2175 
     800    1503.3708   -4136.9846    11788.313    9289.7521    12671.744    10288.492    8604.4085    15.076361   -2649.5268 
     900    1467.3256   -4142.3252    8820.5591    9203.4134    11934.709    8715.6041    7102.9579   -969.69168   -1631.4051 
    1000      1417.92   -4153.3555    7437.7978    7907.7438    10978.712     6891.754     7276.613   -62.973607   -1507.8118 
Loop time of 3.37176 on 1 procs for 1000 steps with 1372 atoms

Performance: 25.625 ns/day, 0.937 hours/ns, 296.581 timesteps/s
99.7% CPU use with 1 MPI tasks x 1 OpenMP threads

MPI task timing breakdown:
Section |  min time  |  avg time  |  max time  |%varavg| %total
---------------------------------------------------------------
Pair    | 2.6802     | 2.6802     | 2.6802     |   0.0 | 79.49
Bond    | 9.2897e-05 | 9.2897e-05 | 9.2897e-05 |   0.0 |  0.00
Neigh   | 0.61122    | 0.61122    | 0.61122    |   0.0 | 18.13
Comm    | 0.014093   | 0.014093   | 0.014093   |   0.0 |  0.42
Output  | 0.00021866 | 0.00021866 | 0.00021866 |   0.0 |  0.01
Modify  | 0.060511   | 0.060511   | 0.060511   |   0.0 |  1.79
Other   |            | 0.005466   |            |       |  0.16

Nlocal:    1372 ave 1372 max 1372 min
Histogram: 1 0 0 0 0 0 0 0 0 0
Nghost:    3323 ave 3323 max 3323 min
Histogram: 1 0 0 0 0 0 0 0 0 0
Neighs:    78225 ave 78225 max 78225 min
Histogram: 1 0 0 0 0 0 0 0 0 0

Total # of neighbors = 78225
Ave neighs/atom = 57.0153
Ave special neighs/atom = 0
Neighbor list builds = 19
Dangerous builds = 0
WARNING: New thermo_style command, previous thermo_modify settings will be lost (../output.cpp:705)
Setting up Verlet run ...
  Unit style    : metal
  Current step  : 0
  Time step     : 0.001
Per MPI rank memory allocation (min/avg/max) = 6.053 | 6.053 | 6.053 Mbytes
Step Temp PotEng Press f_avp[1] f_avp[2] f_avp[3] f_avp[4] f_avp[5] f_avp[6] 
       0      1417.92   -4153.3555    7437.7978            0            0            0            0            0            0 
     100    1463.0431   -4142.8252    7741.6084     5565.477     10043.45     5912.507    10382.252    650.37161    -510.5863 
     200    1488.7459   -4128.4578     12095.54    6896.6835     12779.93    9312.8674    9124.2315    323.51202    266.88368 
     300    1424.5891   -4120.0952     12116.48    11307.139    13762.978    11977.238    8083.2889    614.48354    297.77926 
Loop time of 1.00601 on 1 procs for 300 steps with 1372 atoms

Performance: 25.765 ns/day, 0.931 hours/ns, 298.209 timesteps/s
99.7% CPU use with 1 MPI tasks x 1 OpenMP threads

MPI task timing breakdown:
Section |  min time  |  avg time  |  max time  |%varavg| %total
---------------------------------------------------------------
Pair    | 0.82261    | 0.82261    | 0.82261    |   0.0 | 81.77
Bond    | 3.0218e-05 | 3.0218e-05 | 3.0218e-05 |   0.0 |  0.00
Neigh   | 0.15949    | 0.15949    | 0.15949    |   0.0 | 15.85
Comm    | 0.004118   | 0.004118   | 0.004118   |   0.0 |  0.41
Output  | 6.0327e-05 | 6.0327e-05 | 6.0327e-05 |   0.0 |  0.01
Modify  | 0.018074   | 0.018074   | 0.018074   |   0.0 |  1.80
Other   |            | 0.001619   |            |       |  0.16

Nlocal:    1372 ave 1372 max 1372 min
Histogram: 1 0 0 0 0 0 0 0 0 0
Nghost:    3360 ave 3360 max 3360 min
Histogram: 1 0 0 0 0 0 0 0 0 0
Neighs:    77997 ave 77997 max 77997 min
Histogram: 1 0 0 0 0 0 0 0 0 0

Total # of neighbors = 77997
Ave neighs/atom = 56.8491
Ave special neighs/atom = 0
Neighbor list builds = 5
Dangerous builds = 0
OMP_NUM_THREADS environment is not set. Defaulting to 1 thread. (../comm.cpp:88)
  using 1 OpenMP thread(s) per MPI task
Reading restart file ...
  restart file = 30 Apr 2019, LAMMPS = 30 Apr 2019
  restoring atom style full from restart
  orthogonal box = (0 0 0) to (25.922 25.922 25.922)
  1 by 1 by 1 MPI processor grid
  pair style eam/fs stores no restart info
  1372 atoms
Finding 1-2 1-3 1-4 neighbors ...
  special bond factors lj:   0          0          0         
  special bond factors coul: 0          0          0         
  0 = max # of 1-2 neighbors
  0 = max # of 1-3 neighbors
  0 = max # of 1-4 neighbors
  1 = max # of special neighbors
  special bonds CPU = 0.000127651 secs
  read_restart CPU = 0.000620293 secs
Changing box ...
  triclinic box = (0 0 0) to (25.922 25.922 25.922) with tilt (0 0 0)
Changing box ...
  triclinic box = (0 0 0) to (25.922 25.922 25.922) with tilt (0.518439 0 0)
Neighbor list info ...
  update every 1 steps, delay 0 steps, check yes
  max neighbors/atom: 2000, page size: 100000
  master list distance cutoff = 7
  ghost atom cutoff = 7
  1 neighbor lists, perpetual/occasional/extra = 1 0 0
  (1) pair eam/fs, perpetual
      attributes: half, newton on
      pair build: half/nsq/newton
      stencil: none
      bin: none
Setting up Verlet run ...
  Unit style    : metal
  Current step  : 0
  Time step     : 0.001
Per MPI rank memory allocation (min/avg/max) = 6.028 | 6.028 | 6.028 Mbytes
Step Temp PotEng Press f_avp[1] f_avp[2] f_avp[3] f_avp[4] f_avp[5] f_avp[6] 
       0    1428.6257     -4178.84    2072.5023            0            0            0            0            0            0 
     100    1447.4274   -4126.5131    10518.614    5410.6048    11139.092    5370.4918   -10033.253    1888.5458   -427.03746 
     200    1468.9907   -4091.3526    17995.833    10098.754    19726.453    13240.044    -8889.696     1455.887    -74.90736 
     300    1403.1296   -4067.2785    20769.001    16679.753    24288.191    19868.945   -8377.8577    1658.8578    107.38871 
     400    1458.8823   -4090.0511     17924.19    20794.892    21501.919    21043.975   -7133.7841    1205.9046    34.991451 
     500    1543.2657   -4111.9016    16651.827    16227.975    16404.394    17055.717   -6867.9347     1623.049   -764.35806 
     600    1555.7201   -4119.9311    14517.324    12856.815    17093.667    15774.885   -8981.9904   -5.3775638    -1910.184 
     700    1485.1403   -4131.0329    11649.198    9432.4792    16482.692    11993.463   -8680.7163   -517.22362   -886.46376 
     800    1503.5528   -4137.1504    11403.289    9098.9982    12283.784    10025.049   -8341.1593    -473.8934   -2403.6325 
     900    1466.7984   -4142.5469    8495.7428     8350.009    11588.713    8604.6153   -9780.1346   -1459.1127   -1614.1074 
    1000    1418.4305    -4154.515    7087.3035    7054.1748    10590.178    6861.4493   -9939.9914   -309.13413   -1768.6634 
Loop time of 3.36896 on 1 procs for 1000 steps with 1372 atoms

Performance: 25.646 ns/day, 0.936 hours/ns, 296.827 timesteps/s
99.7% CPU use with 1 MPI tasks x 1 OpenMP threads

MPI task timing breakdown:
Section |  min time  |  avg time  |  max time  |%varavg| %total
---------------------------------------------------------------
Pair    | 2.6767     | 2.6767     | 2.6767     |   0.0 | 79.45
Bond    | 9.15e-05   | 9.15e-05   | 9.15e-05   |   0.0 |  0.00
Neigh   | 0.61171    | 0.61171    | 0.61171    |   0.0 | 18.16
Comm    | 0.014115   | 0.014115   | 0.014115   |   0.0 |  0.42
Output  | 0.000207   | 0.000207   | 0.000207   |   0.0 |  0.01
Modify  | 0.060648   | 0.060648   | 0.060648   |   0.0 |  1.80
Other   |            | 0.005527   |            |       |  0.16

Nlocal:    1372 ave 1372 max 1372 min
Histogram: 1 0 0 0 0 0 0 0 0 0
Nghost:    3326 ave 3326 max 3326 min
Histogram: 1 0 0 0 0 0 0 0 0 0
Neighs:    78190 ave 78190 max 78190 min
Histogram: 1 0 0 0 0 0 0 0 0 0

Total # of neighbors = 78190
Ave neighs/atom = 56.9898
Ave special neighs/atom = 0
Neighbor list builds = 19
Dangerous builds = 0
WARNING: New thermo_style command, previous thermo_modify settings will be lost (../output.cpp:705)
Setting up Verlet run ...
  Unit style    : metal
  Current step  : 0
  Time step     : 0.001
Per MPI rank memory allocation (min/avg/max) = 6.053 | 6.053 | 6.053 Mbytes
Step Temp PotEng Press f_avp[1] f_avp[2] f_avp[3] f_avp[4] f_avp[5] f_avp[6] 
       0    1418.4305    -4154.515    7087.3035            0            0            0            0            0            0 
     100    1462.5896   -4143.1333    7840.7106     5271.826    9861.6365    6268.2022   -6418.6607    316.20784     -529.766 
     200    1486.6595   -4128.8526    11982.098    6504.4683    12482.377    9707.7602   -6512.5346    271.19863    541.31429 
     300    1424.2836   -4121.3182    12149.716    11203.672    13707.467     12597.82    -6751.787    422.63632    367.48369 
Loop time of 1.00899 on 1 procs for 300 steps with 1372 atoms

Performance: 25.689 ns/day, 0.934 hours/ns, 297.327 timesteps/s
99.7% CPU use with 1 MPI tasks x 1 OpenMP threads

MPI task timing breakdown:
Section |  min time  |  avg time  |  max time  |%varavg| %total
---------------------------------------------------------------
Pair    | 0.82466    | 0.82466    | 0.82466    |   0.0 | 81.73
Bond    | 2.6388e-05 | 2.6388e-05 | 2.6388e-05 |   0.0 |  0.00
Neigh   | 0.16041    | 0.16041    | 0.16041    |   0.0 | 15.90
Comm    | 0.004135   | 0.004135   | 0.004135   |   0.0 |  0.41
Output  | 6.5646e-05 | 6.5646e-05 | 6.5646e-05 |   0.0 |  0.01
Modify  | 0.018022   | 0.018022   | 0.018022   |   0.0 |  1.79
Other   |            | 0.001665   |            |       |  0.17

Nlocal:    1372 ave 1372 max 1372 min
Histogram: 1 0 0 0 0 0 0 0 0 0
Nghost:    3370 ave 3370 max 3370 min
Histogram: 1 0 0 0 0 0 0 0 0 0
Neighs:    78049 ave 78049 max 78049 min
Histogram: 1 0 0 0 0 0 0 0 0 0

Total # of neighbors = 78049
Ave neighs/atom = 56.887
Ave special neighs/atom = 0
Neighbor list builds = 5
Dangerous builds = 0
=========================================
Components of the Elastic Constant Tensor
=========================================
Elastic Constant C11all=109.940112576682
Elastic Constant C22all = 108.284142918368 GPa
Elastic Constant C33all = 107.609832621049 GPa
Elastic Constant C12all=101.14707053988
Elastic Constant C13all = 99.0960917785341 GPa
Elastic Constant C23all = 100.063340498661 GPa
Elastic Constant C44all=35.0715185529761
Elastic Constant C55all = 37.6617501401816 GPa
Elastic Constant C66all = 35.0771618108615 GPa
Elastic Constant C14all = 0.881833001039025 GPa
Elastic Constant C15all = 0.550759987901176 GPa
Elastic Constant C16all = -0.275104484791854 GPa
Elastic Constant C24all = 1.16309330118722 GPa
Elastic Constant C25all = 1.25258985298943 GPa
Elastic Constant C26all = 0.735903410406195 GPa
Elastic Constant C34all = 0.216603198259312 GPa
Elastic Constant C35all = 1.74385460119901 GPa
Elastic Constant C36all = -1.35765264769221 GPa
Elastic Constant C45all = -0.362826085016517 GPa
Elastic Constant C46all = -0.81926695259352 GPa
Elastic Constant C56all = 0.719714521156588 GPa
=========================================
Average properties for a cubic crystal
=========================================
Bulk Modulus=102.93856597225
Shear Modulus 1=35.9368101680064
Shear Modulus 2=4.254597549837
Poisson Ratio=0.479615133031883
Total wall time: 0:01:01
