LAMMPS (30 Apr 2019)
OMP_NUM_THREADS environment is not set. Defaulting to 1 thread. (../comm.cpp:88)
  using 1 OpenMP thread(s) per MPI task
# Compute elastic constant tensor for a crystal at finite temperature
#
# WARNING: This script attempts to measure small differences in
# statistical averages generated by finite temperature MD simulations.
# This creates many more opportunities for errors to occur, compared
# to the zero temperature version provided in examples/ELASTIC.
# Hence, it is always a good idea to start with the zero temperature
# calculation, before attempting to use this script.
#
# Written by Aidan Thompson (Sandia, athomps@sandia.gov)
#
#  This script uses the following three include files.
#
#   init.mod      (must be modified for different crystal structures)
# 	       	  Define units, MD parameters, deformation parameters,
#		  and initial configuration of the atoms and simulation cell.
#
#
#   potential.mod    (must be modified for different pair styles)
# 		     Define pair style and other attributes
#		     not stored in restart file
#
#
#   displace.mod    (displace.mod should not need to be modified)
# 		    Perform positive and negative box displacements
# 		    in direction ${dir} and size ${up}.
# 		    It uses the resultant changes
#		    in stress to compute one
# 		    row of the elastic stiffness tensor
#
#		    Inputs variables:
#		    	   dir = the Voigt deformation component
#		    		    (1,2,3,4,5,6)
#		    Global constants:
#       	    	   up = the deformation magnitude (strain units)
#       		   cfac = conversion from LAMMPS pressure units to
#               	   output units for elastic constants
#
#
#  To run this on a different system, it should only be necessary to
#  modify the files init.mod and potential.mod. In order to calculate
#  the elastic constants correctly, care must be taken to specify
#  the correct units in init.mod (units, cfac and cunits). It is also
#  important to verify that the MD sampling of stress components
#  is generating accurate statistical averages.
#  One indication of this is that the elastic constants are insensitive
#  to the choice of the variable ${up} in init.mod. Another is to
#  check for finite size effects.
#

include ./LAMMPS_scripts/Bulk_finite/init.mod
# NOTE: This script can be modified for different atomic structures,
# units, etc. See in.elastic for more info.
#

# Define the finite deformation size. Try several values of this
# variable to verify that results do not depend on it.
variable up equal 2.0e-2

# metal units, elastic constants in GPa
units		metal
variable cfac equal 1.0e-4
variable cunits string GPa

# Define MD parameters
variable nevery equal 10                  # sampling interval
variable nrepeat equal 10                 # number of samples
variable nfreq equal ${nevery}*${nrepeat} # length of one average
variable nfreq equal 10*${nrepeat} 
variable nfreq equal 10*10 
variable nthermo equal ${nfreq}           # interval for thermo output
variable nthermo equal 100           
variable nequil equal 10*${nthermo}       # length of equilibration run
variable nequil equal 10*100       
variable nrun equal 3*${nthermo}          # length of equilibrated run
variable nrun equal 3*100          
variable temp file temp.txt               # temperature of initial sample
variable timestep equal 0.001             # timestep
variable mass1 equal 26.981539            # mass
variable adiabatic equal 0                # adiabatic (1) or isothermal (2)
variable tdamp equal 0.01                 # time constant for thermostat
variable seed equal 123457                # seed for thermostat

# generate the box and atom positions using a fcc lattice
variable a equal 4.04525
dimension 3
boundary	p p p
atom_style full
variable latconst file lat_const.txt
variable stable_structure file stable.txt
lattice ${stable_structure} ${latconst}
lattice fcc ${latconst}
lattice fcc 3.70313746158567
Lattice spacing in x,y,z = 3.70314 3.70314 3.70314
region  box block 0 1 0 1 0 1 units lattice
create_box  1 box
Created orthogonal box = (0 0 0) to (3.70314 3.70314 3.70314)
  1 by 1 by 1 MPI processor grid
create_atoms 1 box
Created 4 atoms
  create_atoms CPU = 0.00136872 secs
replicate 7 7 7
  orthogonal box = (0 0 0) to (25.922 25.922 25.922)
  1 by 1 by 1 MPI processor grid
  1372 atoms
  0 = max # of 1-2 neighbors
  0 = max # of 1-3 neighbors
  0 = max # of 1-4 neighbors
  1 = max # of special neighbors
  special bonds CPU = 0.000158804 secs
  replicate CPU = 0.000646003 secs



mass 1 ${mass1}
mass 1 26.981539
velocity	all create ${temp} 87287
velocity	all create 1482.07786282049 87287



# Compute initial state

variable thermostat equal 1
include ./LAMMPS_scripts/Bulk_finite/potential.mod
# NOTE: This script can be modified for different pair styles
# See in.elastic for more info.

reset_timestep 0

# Choose potential
variable pairstyle file pairsty.txt
pair_style ${pairstyle}
pair_style eam/fs
variable potential file potential.txt
variable type file type.txt
pair_coeff * * ${potential} ${type}
pair_coeff * * Cu1.eam.fs ${type}
pair_coeff * * Cu1.eam.fs Cu

# Setup neighbor style
neighbor 1.0 nsq
neigh_modify once no every 1 delay 0 check yes

# Setup output

fix avp all ave/time  ${nevery} ${nrepeat} ${nfreq} c_thermo_press mode vector
fix avp all ave/time  10 ${nrepeat} ${nfreq} c_thermo_press mode vector
fix avp all ave/time  10 10 ${nfreq} c_thermo_press mode vector
fix avp all ave/time  10 10 100 c_thermo_press mode vector
thermo		${nthermo}
thermo		100
thermo_style custom step temp pe press f_avp[1] f_avp[2] f_avp[3] f_avp[4] f_avp[5] f_avp[6]
thermo_modify norm no

# Setup MD

timestep ${timestep}
timestep 0.001
fix 4 all nve
if "${thermostat} == 1" then    "fix 5 all langevin ${temp} ${temp} ${tdamp} ${seed}"
fix 5 all langevin ${temp} ${temp} ${tdamp} ${seed}
fix 5 all langevin 1482.07786282049 ${temp} ${tdamp} ${seed}
fix 5 all langevin 1482.07786282049 1482.07786282049 ${tdamp} ${seed}
fix 5 all langevin 1482.07786282049 1482.07786282049 0.01 ${seed}
fix 5 all langevin 1482.07786282049 1482.07786282049 0.01 123457


run ${nequil}
run 1000
Neighbor list info ...
  update every 1 steps, delay 0 steps, check yes
  max neighbors/atom: 2000, page size: 100000
  master list distance cutoff = 7
  ghost atom cutoff = 7
  1 neighbor lists, perpetual/occasional/extra = 1 0 0
  (1) pair eam/fs, perpetual
      attributes: half, newton on
      pair build: half/nsq/newton
      stencil: none
      bin: none
Per MPI rank memory allocation (min/avg/max) = 6.069 | 6.069 | 6.069 Mbytes
Step Temp PotEng Press f_avp[1] f_avp[2] f_avp[3] f_avp[4] f_avp[5] f_avp[6] 
       0    3490.5392   -4484.5945    -30502.28            0            0            0            0            0            0 
     100    1454.1805   -4281.9076   -14837.017   -26835.051    -26785.76   -26634.735   -568.41405   -861.66516   -189.44435 
     200    1483.6047   -4239.9954   -7136.1697   -11309.481    -10212.06   -10121.992   -79.154162   -208.14397    582.98925 
     300    1422.1214   -4216.9896   -4072.9293   -4887.5924   -4800.5585   -4665.0276    1532.4378    1048.0662    52.955648 
     400    1441.0944   -4219.6734   -3877.1947   -1648.0434   -2420.8903    -2510.422    181.27553    1080.9533   -400.55552 
     500    1521.1447   -4208.2631   -1858.9093    -4101.584   -2564.9014   -2965.9887    212.31839    1530.0085    804.70666 
     600     1547.138    -4194.605    2135.3747   -89.532243      721.622  -0.72819203   -173.97301    312.46368    129.64702 
     700    1474.5651    -4195.609    388.03572   -1440.7083    1408.2259    1321.6236    118.48453    241.08734   -1325.3121 
     800     1511.217   -4196.3486    1660.8604    511.84234   -453.91017    1901.9724    1060.7556    1245.9025   -771.57738 
     900    1460.4046   -4196.4415    662.46267    1007.0064   -333.87958    1867.0481   -256.37619   -411.92616     -263.808 
    1000     1417.207   -4194.4991    -375.7396    1512.2643    682.18381    1416.5293   -1445.2155   -1537.7468    1165.2456 
Loop time of 3.26375 on 1 procs for 1000 steps with 1372 atoms

Performance: 26.473 ns/day, 0.907 hours/ns, 306.396 timesteps/s
99.6% CPU use with 1 MPI tasks x 1 OpenMP threads

MPI task timing breakdown:
Section |  min time  |  avg time  |  max time  |%varavg| %total
---------------------------------------------------------------
Pair    | 2.8285     | 2.8285     | 2.8285     |   0.0 | 86.67
Bond    | 9.9259e-05 | 9.9259e-05 | 9.9259e-05 |   0.0 |  0.00
Neigh   | 0.3555     | 0.3555     | 0.3555     |   0.0 | 10.89
Comm    | 0.013326   | 0.013326   | 0.013326   |   0.0 |  0.41
Output  | 0.00021083 | 0.00021083 | 0.00021083 |   0.0 |  0.01
Modify  | 0.060636   | 0.060636   | 0.060636   |   0.0 |  1.86
Other   |            | 0.005444   |            |       |  0.17

Nlocal:    1372 ave 1372 max 1372 min
Histogram: 1 0 0 0 0 0 0 0 0 0
Nghost:    3295 ave 3295 max 3295 min
Histogram: 1 0 0 0 0 0 0 0 0 0
Neighs:    78456 ave 78456 max 78456 min
Histogram: 1 0 0 0 0 0 0 0 0 0

Total # of neighbors = 78456
Ave neighs/atom = 57.1837
Ave special neighs/atom = 0
Neighbor list builds = 18
Dangerous builds = 0

if "${adiabatic} == 1" then "variable thermostat equal 0" else "variable thermostat equal 1"
variable thermostat equal 1

print ${thermostat}
print 1
1

include ./LAMMPS_scripts/Bulk_finite/potential.mod
# NOTE: This script can be modified for different pair styles
# See in.elastic for more info.

reset_timestep 0

# Choose potential
variable pairstyle file pairsty.txt
pair_style ${pairstyle}
pair_style eam/fs
variable potential file potential.txt
variable type file type.txt
pair_coeff * * ${potential} ${type}
pair_coeff * * Cu1.eam.fs ${type}
pair_coeff * * Cu1.eam.fs Cu

# Setup neighbor style
neighbor 1.0 nsq
neigh_modify once no every 1 delay 0 check yes

# Setup output

fix avp all ave/time  ${nevery} ${nrepeat} ${nfreq} c_thermo_press mode vector
fix avp all ave/time  10 ${nrepeat} ${nfreq} c_thermo_press mode vector
fix avp all ave/time  10 10 ${nfreq} c_thermo_press mode vector
fix avp all ave/time  10 10 100 c_thermo_press mode vector
thermo		${nthermo}
thermo		100
thermo_style custom step temp pe press f_avp[1] f_avp[2] f_avp[3] f_avp[4] f_avp[5] f_avp[6]
WARNING: New thermo_style command, previous thermo_modify settings will be lost (../output.cpp:705)
thermo_modify norm no

# Setup MD

timestep ${timestep}
timestep 0.001
fix 4 all nve
if "${thermostat} == 1" then    "fix 5 all langevin ${temp} ${temp} ${tdamp} ${seed}"
fix 5 all langevin ${temp} ${temp} ${tdamp} ${seed}
fix 5 all langevin 1482.07786282049 ${temp} ${tdamp} ${seed}
fix 5 all langevin 1482.07786282049 1482.07786282049 ${tdamp} ${seed}
fix 5 all langevin 1482.07786282049 1482.07786282049 0.01 ${seed}
fix 5 all langevin 1482.07786282049 1482.07786282049 0.01 123457


run ${nrun}
run 300
Per MPI rank memory allocation (min/avg/max) = 6.069 | 6.069 | 6.069 Mbytes
Step Temp PotEng Press f_avp[1] f_avp[2] f_avp[3] f_avp[4] f_avp[5] f_avp[6] 
       0     1417.207   -4194.4991    -375.7396            0            0            0            0            0            0 
     100    1464.3568   -4183.9775    1696.8947    2638.9363    2077.1861   -245.55113    154.67017   -692.36967    580.68779 
     200    1492.9927   -4180.2806    2323.6545    473.31868     3862.506    1706.4104   -57.304664    242.24621    1287.9198 
     300    1428.6257   -4180.1797      1887.63   -62.818695    5472.8427    1878.3559   -650.31954    1462.7708    1041.2025 
Loop time of 1.0395 on 1 procs for 300 steps with 1372 atoms

Performance: 24.935 ns/day, 0.963 hours/ns, 288.599 timesteps/s
99.6% CPU use with 1 MPI tasks x 1 OpenMP threads

MPI task timing breakdown:
Section |  min time  |  avg time  |  max time  |%varavg| %total
---------------------------------------------------------------
Pair    | 0.85739    | 0.85739    | 0.85739    |   0.0 | 82.48
Bond    | 3.404e-05  | 3.404e-05  | 3.404e-05  |   0.0 |  0.00
Neigh   | 0.15827    | 0.15827    | 0.15827    |   0.0 | 15.23
Comm    | 0.0039487  | 0.0039487  | 0.0039487  |   0.0 |  0.38
Output  | 6.1275e-05 | 6.1275e-05 | 6.1275e-05 |   0.0 |  0.01
Modify  | 0.018165   | 0.018165   | 0.018165   |   0.0 |  1.75
Other   |            | 0.001629   |            |       |  0.16

Nlocal:    1372 ave 1372 max 1372 min
Histogram: 1 0 0 0 0 0 0 0 0 0
Nghost:    3294 ave 3294 max 3294 min
Histogram: 1 0 0 0 0 0 0 0 0 0
Neighs:    78279 ave 78279 max 78279 min
Histogram: 1 0 0 0 0 0 0 0 0 0

Total # of neighbors = 78279
Ave neighs/atom = 57.0547
Ave special neighs/atom = 0
Neighbor list builds = 5
Dangerous builds = 0

variable pxx0 equal f_avp[1]
variable pyy0 equal f_avp[2]
variable pzz0 equal f_avp[3]
variable pxy0 equal f_avp[4]
variable pxz0 equal f_avp[5]
variable pyz0 equal f_avp[6]

variable tmp equal lx
variable lx0 equal ${tmp}
variable lx0 equal 25.9219622310997
variable tmp equal ly
variable ly0 equal ${tmp}
variable ly0 equal 25.9219622310997
variable tmp equal lz
variable lz0 equal ${tmp}
variable lz0 equal 25.9219622310997

# These formulas define the derivatives w.r.t. strain components
# Constants uses $, variables use v_
variable d1 equal -(v_pxx1-${pxx0})/(v_delta/v_len0)*${cfac}
variable d1 equal -(v_pxx1--62.8186953065482)/(v_delta/v_len0)*${cfac}
variable d1 equal -(v_pxx1--62.8186953065482)/(v_delta/v_len0)*0.0001
variable d2 equal -(v_pyy1-${pyy0})/(v_delta/v_len0)*${cfac}
variable d2 equal -(v_pyy1-5472.84272627523)/(v_delta/v_len0)*${cfac}
variable d2 equal -(v_pyy1-5472.84272627523)/(v_delta/v_len0)*0.0001
variable d3 equal -(v_pzz1-${pzz0})/(v_delta/v_len0)*${cfac}
variable d3 equal -(v_pzz1-1878.35593948771)/(v_delta/v_len0)*${cfac}
variable d3 equal -(v_pzz1-1878.35593948771)/(v_delta/v_len0)*0.0001
variable d4 equal -(v_pyz1-${pyz0})/(v_delta/v_len0)*${cfac}
variable d4 equal -(v_pyz1-1041.2024770279)/(v_delta/v_len0)*${cfac}
variable d4 equal -(v_pyz1-1041.2024770279)/(v_delta/v_len0)*0.0001
variable d5 equal -(v_pxz1-${pxz0})/(v_delta/v_len0)*${cfac}
variable d5 equal -(v_pxz1-1462.77080404641)/(v_delta/v_len0)*${cfac}
variable d5 equal -(v_pxz1-1462.77080404641)/(v_delta/v_len0)*0.0001
variable d6 equal -(v_pxy1-${pxy0})/(v_delta/v_len0)*${cfac}
variable d6 equal -(v_pxy1--650.319542961762)/(v_delta/v_len0)*${cfac}
variable d6 equal -(v_pxy1--650.319542961762)/(v_delta/v_len0)*0.0001

# Write restart
write_restart ./Outputs/lammps_out/Bulk_finite/restart.equil

# uxx Perturbation

variable dir equal 1
include ./LAMMPS_scripts/Bulk_finite/displace.mod
# NOTE: This script should not need to be
# modified. See in.elastic for more info.
#
# Find which reference length to use

if "${dir} == 1" then    "variable len0 equal ${lx0}"
variable len0 equal ${lx0}
variable len0 equal 25.9219622310997
if "${dir} == 2" then    "variable len0 equal ${ly0}"
if "${dir} == 3" then    "variable len0 equal ${lz0}"
if "${dir} == 4" then    "variable len0 equal ${lz0}"
if "${dir} == 5" then    "variable len0 equal ${lz0}"
if "${dir} == 6" then    "variable len0 equal ${ly0}"

# Reset box and simulation parameters

clear
OMP_NUM_THREADS environment is not set. Defaulting to 1 thread. (../comm.cpp:88)
  using 1 OpenMP thread(s) per MPI task
box tilt large
read_restart ./Outputs/lammps_out/Bulk_finite/restart.equil
  restoring atom style full from restart
  orthogonal box = (0 0 0) to (25.922 25.922 25.922)
  1 by 1 by 1 MPI processor grid
  pair style eam/fs stores no restart info
  1372 atoms
  0 = max # of 1-2 neighbors
  0 = max # of 1-3 neighbors
  0 = max # of 1-4 neighbors
  1 = max # of special neighbors
  special bonds CPU = 0.000133074 secs
  read_restart CPU = 0.0005726 secs
include ./LAMMPS_scripts/Bulk_finite/potential.mod
# NOTE: This script can be modified for different pair styles
# See in.elastic for more info.

reset_timestep 0

# Choose potential
variable pairstyle file pairsty.txt
pair_style ${pairstyle}
pair_style eam/fs
variable potential file potential.txt
variable type file type.txt
pair_coeff * * ${potential} ${type}
pair_coeff * * Cu1.eam.fs ${type}
pair_coeff * * Cu1.eam.fs Cu

# Setup neighbor style
neighbor 1.0 nsq
neigh_modify once no every 1 delay 0 check yes

# Setup output

fix avp all ave/time  ${nevery} ${nrepeat} ${nfreq} c_thermo_press mode vector
fix avp all ave/time  10 ${nrepeat} ${nfreq} c_thermo_press mode vector
fix avp all ave/time  10 10 ${nfreq} c_thermo_press mode vector
fix avp all ave/time  10 10 100 c_thermo_press mode vector
thermo		${nthermo}
thermo		100
thermo_style custom step temp pe press f_avp[1] f_avp[2] f_avp[3] f_avp[4] f_avp[5] f_avp[6]
thermo_modify norm no

# Setup MD

timestep ${timestep}
timestep 0.001
fix 4 all nve
if "${thermostat} == 1" then    "fix 5 all langevin ${temp} ${temp} ${tdamp} ${seed}"
fix 5 all langevin ${temp} ${temp} ${tdamp} ${seed}
fix 5 all langevin 1482.07786282049 ${temp} ${tdamp} ${seed}
fix 5 all langevin 1482.07786282049 1482.07786282049 ${tdamp} ${seed}
fix 5 all langevin 1482.07786282049 1482.07786282049 0.01 ${seed}
fix 5 all langevin 1482.07786282049 1482.07786282049 0.01 123457



# Negative deformation

variable delta equal -${up}*${len0}
variable delta equal -0.02*${len0}
variable delta equal -0.02*25.9219622310997
variable deltaxy equal -${up}*xy
variable deltaxy equal -0.02*xy
variable deltaxz equal -${up}*xz
variable deltaxz equal -0.02*xz
variable deltayz equal -${up}*yz
variable deltayz equal -0.02*yz
change_box all triclinic
  triclinic box = (0 0 0) to (25.922 25.922 25.922) with tilt (0 0 0)
if "${dir} == 1" then    "change_box all x delta 0 ${delta} xy delta ${deltaxy} xz delta ${deltaxz} remap units box"
change_box all x delta 0 ${delta} xy delta ${deltaxy} xz delta ${deltaxz} remap units box
change_box all x delta 0 -0.518439244621994 xy delta ${deltaxy} xz delta ${deltaxz} remap units box
change_box all x delta 0 -0.518439244621994 xy delta -0 xz delta ${deltaxz} remap units box
change_box all x delta 0 -0.518439244621994 xy delta -0 xz delta -0 remap units box
  triclinic box = (0 0 0) to (25.4035 25.922 25.922) with tilt (0 0 0)
  triclinic box = (0 0 0) to (25.4035 25.922 25.922) with tilt (0 0 0)
  triclinic box = (0 0 0) to (25.4035 25.922 25.922) with tilt (0 0 0)
if "${dir} == 2" then    "change_box all y delta 0 ${delta} yz delta ${deltayz} remap units box"
if "${dir} == 3" then    "change_box all z delta 0 ${delta} remap units box"
if "${dir} == 4" then    "change_box all yz delta ${delta} remap units box"
if "${dir} == 5" then    "change_box all xz delta ${delta} remap units box"
if "${dir} == 6" then    "change_box all xy delta ${delta} remap units box"

# Run MD

run ${nequil}
run 1000
Neighbor list info ...
  update every 1 steps, delay 0 steps, check yes
  max neighbors/atom: 2000, page size: 100000
  master list distance cutoff = 7
  ghost atom cutoff = 7
  1 neighbor lists, perpetual/occasional/extra = 1 0 0
  (1) pair eam/fs, perpetual
      attributes: half, newton on
      pair build: half/nsq/newton
      stencil: none
      bin: none
Per MPI rank memory allocation (min/avg/max) = 6.052 | 6.052 | 6.052 Mbytes
Step Temp PotEng Press f_avp[1] f_avp[2] f_avp[3] f_avp[4] f_avp[5] f_avp[6] 
       0    1428.6257   -4180.2267    28401.469            0            0            0            0            0            0 
     100    1448.1956    -4132.334    34406.246    35051.609     33746.85    28209.624    533.73245    1931.8843   -430.87559 
     200    1469.7252   -4099.1128    40996.605    36417.256    41488.154    35394.059   -94.650366    1512.4525    -158.7007 
     300    1403.4516    -4077.848    42560.327    40912.149    45403.304    41272.356   -915.24534    1874.5916    129.53104 
     400    1459.2173   -4102.4945    39582.325    43837.706        42513    41919.783    49.897084     1369.587   -91.732917 
     500    1543.2371     -4124.99    38717.445    40035.043    37907.668    37869.214    1073.9928    1843.7612   -912.95147 
     600    1555.1951   -4134.4889    36658.436    36525.726    38341.722    36593.946   -688.19593    246.07454   -2025.4372 
     700    1486.9292   -4145.6489    33883.713    33534.261    37964.456    32956.347   -104.09449   -289.27531   -911.75741 
     800     1503.199   -4151.6625    33979.162    33508.089    33911.436    31420.914    450.84874   -137.06554   -2309.4378 
     900    1468.4506    -4158.056     31092.48    33097.812    33345.076    30066.822   -919.42542   -1177.7835    -1303.942 
    1000    1419.0904   -4169.4419    29762.839    31888.625     32598.02     28279.36   -1210.0534   -110.64937   -1489.1718 
Loop time of 3.63618 on 1 procs for 1000 steps with 1372 atoms

Performance: 23.761 ns/day, 1.010 hours/ns, 275.014 timesteps/s
99.6% CPU use with 1 MPI tasks x 1 OpenMP threads

MPI task timing breakdown:
Section |  min time  |  avg time  |  max time  |%varavg| %total
---------------------------------------------------------------
Pair    | 2.9334     | 2.9334     | 2.9334     |   0.0 | 80.67
Bond    | 8.6549e-05 | 8.6549e-05 | 8.6549e-05 |   0.0 |  0.00
Neigh   | 0.62177    | 0.62177    | 0.62177    |   0.0 | 17.10
Comm    | 0.014084   | 0.014084   | 0.014084   |   0.0 |  0.39
Output  | 0.00021109 | 0.00021109 | 0.00021109 |   0.0 |  0.01
Modify  | 0.060998   | 0.060998   | 0.060998   |   0.0 |  1.68
Other   |            | 0.005603   |            |       |  0.15

Nlocal:    1372 ave 1372 max 1372 min
Histogram: 1 0 0 0 0 0 0 0 0 0
Nghost:    3376 ave 3376 max 3376 min
Histogram: 1 0 0 0 0 0 0 0 0 0
Neighs:    80385 ave 80385 max 80385 min
Histogram: 1 0 0 0 0 0 0 0 0 0

Total # of neighbors = 80385
Ave neighs/atom = 58.5897
Ave special neighs/atom = 0
Neighbor list builds = 19
Dangerous builds = 0
include ./LAMMPS_scripts/Bulk_finite/potential.mod
# NOTE: This script can be modified for different pair styles
# See in.elastic for more info.

reset_timestep 0

# Choose potential
variable pairstyle file pairsty.txt
pair_style ${pairstyle}
pair_style eam/fs
variable potential file potential.txt
variable type file type.txt
pair_coeff * * ${potential} ${type}
pair_coeff * * Cu1.eam.fs ${type}
pair_coeff * * Cu1.eam.fs Cu

# Setup neighbor style
neighbor 1.0 nsq
neigh_modify once no every 1 delay 0 check yes

# Setup output

fix avp all ave/time  ${nevery} ${nrepeat} ${nfreq} c_thermo_press mode vector
fix avp all ave/time  10 ${nrepeat} ${nfreq} c_thermo_press mode vector
fix avp all ave/time  10 10 ${nfreq} c_thermo_press mode vector
fix avp all ave/time  10 10 100 c_thermo_press mode vector
thermo		${nthermo}
thermo		100
thermo_style custom step temp pe press f_avp[1] f_avp[2] f_avp[3] f_avp[4] f_avp[5] f_avp[6]
WARNING: New thermo_style command, previous thermo_modify settings will be lost (../output.cpp:705)
thermo_modify norm no

# Setup MD

timestep ${timestep}
timestep 0.001
fix 4 all nve
if "${thermostat} == 1" then    "fix 5 all langevin ${temp} ${temp} ${tdamp} ${seed}"
fix 5 all langevin ${temp} ${temp} ${tdamp} ${seed}
fix 5 all langevin 1482.07786282049 ${temp} ${tdamp} ${seed}
fix 5 all langevin 1482.07786282049 1482.07786282049 ${tdamp} ${seed}
fix 5 all langevin 1482.07786282049 1482.07786282049 0.01 ${seed}
fix 5 all langevin 1482.07786282049 1482.07786282049 0.01 123457


run ${nrun}
run 300
Per MPI rank memory allocation (min/avg/max) = 6.052 | 6.052 | 6.052 Mbytes
Step Temp PotEng Press f_avp[1] f_avp[2] f_avp[3] f_avp[4] f_avp[5] f_avp[6] 
       0    1419.0904   -4169.4419    29762.839            0            0            0            0            0            0 
     100    1463.2713    -4159.327    29842.614    29539.579    31627.401    27386.775     1910.426    409.45809     -367.198 
     200    1486.7766   -4144.5763     34121.06    30261.913    34192.588    30465.633    1341.1623    159.98076    570.50728 
     300    1423.3398   -4137.3905    33593.183    34537.659    35059.818    33314.178    711.74821    665.71829    589.04042 
Loop time of 1.0708 on 1 procs for 300 steps with 1372 atoms

Performance: 24.206 ns/day, 0.991 hours/ns, 280.164 timesteps/s
99.7% CPU use with 1 MPI tasks x 1 OpenMP threads

MPI task timing breakdown:
Section |  min time  |  avg time  |  max time  |%varavg| %total
---------------------------------------------------------------
Pair    | 0.88349    | 0.88349    | 0.88349    |   0.0 | 82.51
Bond    | 2.765e-05  | 2.765e-05  | 2.765e-05  |   0.0 |  0.00
Neigh   | 0.16312    | 0.16312    | 0.16312    |   0.0 | 15.23
Comm    | 0.0041574  | 0.0041574  | 0.0041574  |   0.0 |  0.39
Output  | 5.9051e-05 | 5.9051e-05 | 5.9051e-05 |   0.0 |  0.01
Modify  | 0.018304   | 0.018304   | 0.018304   |   0.0 |  1.71
Other   |            | 0.001646   |            |       |  0.15

Nlocal:    1372 ave 1372 max 1372 min
Histogram: 1 0 0 0 0 0 0 0 0 0
Nghost:    3410 ave 3410 max 3410 min
Histogram: 1 0 0 0 0 0 0 0 0 0
Neighs:    80116 ave 80116 max 80116 min
Histogram: 1 0 0 0 0 0 0 0 0 0

Total # of neighbors = 80116
Ave neighs/atom = 58.3936
Ave special neighs/atom = 0
Neighbor list builds = 5
Dangerous builds = 0

# Obtain new stress tensor

variable pxx1 equal f_avp[1]
variable pyy1 equal f_avp[2]
variable pzz1 equal f_avp[3]
variable pxy1 equal f_avp[4]
variable pxz1 equal f_avp[5]
variable pyz1 equal f_avp[6]

# Compute elastic constant from pressure tensor

variable C1neg equal ${d1}
variable C1neg equal 173.00238792165
variable C2neg equal ${d2}
variable C2neg equal 147.934876705454
variable C3neg equal ${d3}
variable C3neg equal 157.179112310786
variable C4neg equal ${d4}
variable C4neg equal -2.26081030917039
variable C5neg equal ${d5}
variable C5neg equal -3.985262568489
variable C6neg equal ${d6}
variable C6neg equal 6.81033876430294

# Reset box and simulation parameters

clear
OMP_NUM_THREADS environment is not set. Defaulting to 1 thread. (../comm.cpp:88)
  using 1 OpenMP thread(s) per MPI task
box tilt large
read_restart ./Outputs/lammps_out/Bulk_finite/restart.equil
  restoring atom style full from restart
  orthogonal box = (0 0 0) to (25.922 25.922 25.922)
  1 by 1 by 1 MPI processor grid
  pair style eam/fs stores no restart info
  1372 atoms
  0 = max # of 1-2 neighbors
  0 = max # of 1-3 neighbors
  0 = max # of 1-4 neighbors
  1 = max # of special neighbors
  special bonds CPU = 0.000127691 secs
  read_restart CPU = 0.000779486 secs
include ./LAMMPS_scripts/Bulk_finite/potential.mod
# NOTE: This script can be modified for different pair styles
# See in.elastic for more info.

reset_timestep 0

# Choose potential
variable pairstyle file pairsty.txt
pair_style ${pairstyle}
pair_style eam/fs
variable potential file potential.txt
variable type file type.txt
pair_coeff * * ${potential} ${type}
pair_coeff * * Cu1.eam.fs ${type}
pair_coeff * * Cu1.eam.fs Cu

# Setup neighbor style
neighbor 1.0 nsq
neigh_modify once no every 1 delay 0 check yes

# Setup output

fix avp all ave/time  ${nevery} ${nrepeat} ${nfreq} c_thermo_press mode vector
fix avp all ave/time  10 ${nrepeat} ${nfreq} c_thermo_press mode vector
fix avp all ave/time  10 10 ${nfreq} c_thermo_press mode vector
fix avp all ave/time  10 10 100 c_thermo_press mode vector
thermo		${nthermo}
thermo		100
thermo_style custom step temp pe press f_avp[1] f_avp[2] f_avp[3] f_avp[4] f_avp[5] f_avp[6]
thermo_modify norm no

# Setup MD

timestep ${timestep}
timestep 0.001
fix 4 all nve
if "${thermostat} == 1" then    "fix 5 all langevin ${temp} ${temp} ${tdamp} ${seed}"
fix 5 all langevin ${temp} ${temp} ${tdamp} ${seed}
fix 5 all langevin 1482.07786282049 ${temp} ${tdamp} ${seed}
fix 5 all langevin 1482.07786282049 1482.07786282049 ${tdamp} ${seed}
fix 5 all langevin 1482.07786282049 1482.07786282049 0.01 ${seed}
fix 5 all langevin 1482.07786282049 1482.07786282049 0.01 123457



# Positive deformation

variable delta equal ${up}*${len0}
variable delta equal 0.02*${len0}
variable delta equal 0.02*25.9219622310997
variable deltaxy equal ${up}*xy
variable deltaxy equal 0.02*xy
variable deltaxz equal ${up}*xz
variable deltaxz equal 0.02*xz
variable deltayz equal ${up}*yz
variable deltayz equal 0.02*yz
change_box all triclinic
  triclinic box = (0 0 0) to (25.922 25.922 25.922) with tilt (0 0 0)
if "${dir} == 1" then    "change_box all x delta 0 ${delta} xy delta ${deltaxy} xz delta ${deltaxz} remap units box"
change_box all x delta 0 ${delta} xy delta ${deltaxy} xz delta ${deltaxz} remap units box
change_box all x delta 0 0.518439244621994 xy delta ${deltaxy} xz delta ${deltaxz} remap units box
change_box all x delta 0 0.518439244621994 xy delta 0 xz delta ${deltaxz} remap units box
change_box all x delta 0 0.518439244621994 xy delta 0 xz delta 0 remap units box
  triclinic box = (0 0 0) to (26.4404 25.922 25.922) with tilt (0 0 0)
  triclinic box = (0 0 0) to (26.4404 25.922 25.922) with tilt (0 0 0)
  triclinic box = (0 0 0) to (26.4404 25.922 25.922) with tilt (0 0 0)
if "${dir} == 2" then    "change_box all y delta 0 ${delta} yz delta ${deltayz} remap units box"
if "${dir} == 3" then    "change_box all z delta 0 ${delta} remap units box"
if "${dir} == 4" then    "change_box all yz delta ${delta} remap units box"
if "${dir} == 5" then    "change_box all xz delta ${delta} remap units box"
if "${dir} == 6" then    "change_box all xy delta ${delta} remap units box"

# Run MD

run ${nequil}
run 1000
Neighbor list info ...
  update every 1 steps, delay 0 steps, check yes
  max neighbors/atom: 2000, page size: 100000
  master list distance cutoff = 7
  ghost atom cutoff = 7
  1 neighbor lists, perpetual/occasional/extra = 1 0 0
  (1) pair eam/fs, perpetual
      attributes: half, newton on
      pair build: half/nsq/newton
      stencil: none
      bin: none
Per MPI rank memory allocation (min/avg/max) = 6.028 | 6.028 | 6.028 Mbytes
Step Temp PotEng Press f_avp[1] f_avp[2] f_avp[3] f_avp[4] f_avp[5] f_avp[6] 
       0    1428.6257   -4173.3894   -23133.942            0            0            0            0            0            0 
     100    1447.6835   -4116.5412   -12400.982   -22833.534   -10766.648   -15948.095    269.59814    1952.4768   -547.23462 
     200    1468.7401   -4079.9132   -3664.6554   -15393.516   -1272.3863   -7093.9196    69.115994    1560.5082   -310.64584 
     300    1403.5569   -4052.7879     655.8135   -6552.4831    4469.5552    396.89981    -770.2893    1645.3165   -112.61945 
     400     1457.951   -4073.8823   -1917.2891   -1181.8331    2274.3949    2196.7832    10.511379    1494.2914   -195.21729 
     500    1543.1285   -4095.5981   -4066.0201   -6067.5591   -3208.9236   -2257.0958    860.55593    1970.7826   -1096.6219 
     600    1556.1634   -4102.1954   -5941.2911    -9398.102   -2901.1944   -3698.8371   -1135.0329    295.82037   -2222.1039 
     700    1483.0109   -4112.2435    -8679.261   -12880.181   -3179.8064   -7120.4065   -738.89441   -450.82443    -1297.724 
     800     1503.708   -4118.4559   -9030.1512   -13567.317   -7633.8341   -8886.7894   -116.83704   -359.16562   -2713.6289 
     900    1465.8799   -4122.6377    -11921.38   -13857.725     -8337.06   -10406.863   -1651.3041   -1259.2759   -1970.6375 
    1000    1417.5918   -4134.0179   -13512.852   -15240.696   -9592.3794   -12204.996   -1423.2131    -272.0622   -1795.4756 
Loop time of 3.48737 on 1 procs for 1000 steps with 1372 atoms

Performance: 24.775 ns/day, 0.969 hours/ns, 286.749 timesteps/s
99.7% CPU use with 1 MPI tasks x 1 OpenMP threads

MPI task timing breakdown:
Section |  min time  |  avg time  |  max time  |%varavg| %total
---------------------------------------------------------------
Pair    | 2.7955     | 2.7955     | 2.7955     |   0.0 | 80.16
Bond    | 8.1966e-05 | 8.1966e-05 | 8.1966e-05 |   0.0 |  0.00
Neigh   | 0.61187    | 0.61187    | 0.61187    |   0.0 | 17.55
Comm    | 0.013895   | 0.013895   | 0.013895   |   0.0 |  0.40
Output  | 0.00021045 | 0.00021045 | 0.00021045 |   0.0 |  0.01
Modify  | 0.060247   | 0.060247   | 0.060247   |   0.0 |  1.73
Other   |            | 0.005579   |            |       |  0.16

Nlocal:    1372 ave 1372 max 1372 min
Histogram: 1 0 0 0 0 0 0 0 0 0
Nghost:    3313 ave 3313 max 3313 min
Histogram: 1 0 0 0 0 0 0 0 0 0
Neighs:    76089 ave 76089 max 76089 min
Histogram: 1 0 0 0 0 0 0 0 0 0

Total # of neighbors = 76089
Ave neighs/atom = 55.4585
Ave special neighs/atom = 0
Neighbor list builds = 19
Dangerous builds = 0
include ./LAMMPS_scripts/Bulk_finite/potential.mod
# NOTE: This script can be modified for different pair styles
# See in.elastic for more info.

reset_timestep 0

# Choose potential
variable pairstyle file pairsty.txt
pair_style ${pairstyle}
pair_style eam/fs
variable potential file potential.txt
variable type file type.txt
pair_coeff * * ${potential} ${type}
pair_coeff * * Cu1.eam.fs ${type}
pair_coeff * * Cu1.eam.fs Cu

# Setup neighbor style
neighbor 1.0 nsq
neigh_modify once no every 1 delay 0 check yes

# Setup output

fix avp all ave/time  ${nevery} ${nrepeat} ${nfreq} c_thermo_press mode vector
fix avp all ave/time  10 ${nrepeat} ${nfreq} c_thermo_press mode vector
fix avp all ave/time  10 10 ${nfreq} c_thermo_press mode vector
fix avp all ave/time  10 10 100 c_thermo_press mode vector
thermo		${nthermo}
thermo		100
thermo_style custom step temp pe press f_avp[1] f_avp[2] f_avp[3] f_avp[4] f_avp[5] f_avp[6]
WARNING: New thermo_style command, previous thermo_modify settings will be lost (../output.cpp:705)
thermo_modify norm no

# Setup MD

timestep ${timestep}
timestep 0.001
fix 4 all nve
if "${thermostat} == 1" then    "fix 5 all langevin ${temp} ${temp} ${tdamp} ${seed}"
fix 5 all langevin ${temp} ${temp} ${tdamp} ${seed}
fix 5 all langevin 1482.07786282049 ${temp} ${tdamp} ${seed}
fix 5 all langevin 1482.07786282049 1482.07786282049 ${tdamp} ${seed}
fix 5 all langevin 1482.07786282049 1482.07786282049 0.01 ${seed}
fix 5 all langevin 1482.07786282049 1482.07786282049 0.01 123457


run ${nrun}
run 300
Per MPI rank memory allocation (min/avg/max) = 6.053 | 6.053 | 6.053 Mbytes
Step Temp PotEng Press f_avp[1] f_avp[2] f_avp[3] f_avp[4] f_avp[5] f_avp[6] 
       0    1417.5918   -4134.0179   -13512.852            0            0            0            0            0            0 
     100    1462.6192   -4121.9715   -12455.143   -16969.648   -10394.448   -12908.495    2023.2447    511.33811   -688.05111 
     200    1488.6333   -4108.1527   -8267.5256    -15170.68   -7620.5966   -9279.4164    1308.8891     508.6544    219.63083 
     300    1425.5674   -4099.5752   -7364.0796   -10151.263   -6098.9299   -6503.0417    621.42474    481.28893    75.787804 
Loop time of 1.02104 on 1 procs for 300 steps with 1372 atoms

Performance: 25.386 ns/day, 0.945 hours/ns, 293.818 timesteps/s
99.3% CPU use with 1 MPI tasks x 1 OpenMP threads

MPI task timing breakdown:
Section |  min time  |  avg time  |  max time  |%varavg| %total
---------------------------------------------------------------
Pair    | 0.83671    | 0.83671    | 0.83671    |   0.0 | 81.95
Bond    | 2.5654e-05 | 2.5654e-05 | 2.5654e-05 |   0.0 |  0.00
Neigh   | 0.16041    | 0.16041    | 0.16041    |   0.0 | 15.71
Comm    | 0.0041088  | 0.0041088  | 0.0041088  |   0.0 |  0.40
Output  | 5.6799e-05 | 5.6799e-05 | 5.6799e-05 |   0.0 |  0.01
Modify  | 0.018096   | 0.018096   | 0.018096   |   0.0 |  1.77
Other   |            | 0.001641   |            |       |  0.16

Nlocal:    1372 ave 1372 max 1372 min
Histogram: 1 0 0 0 0 0 0 0 0 0
Nghost:    3354 ave 3354 max 3354 min
Histogram: 1 0 0 0 0 0 0 0 0 0
Neighs:    76027 ave 76027 max 76027 min
Histogram: 1 0 0 0 0 0 0 0 0 0

Total # of neighbors = 76027
Ave neighs/atom = 55.4133
Ave special neighs/atom = 0
Neighbor list builds = 5
Dangerous builds = 0

# Obtain new stress tensor

variable tmp equal pe
variable e1 equal ${tmp}
variable e1 equal -4099.57517832065
variable tmp equal press
variable p1 equal ${tmp}
variable p1 equal -7364.07962315629
variable tmp equal pxx
variable pxx1 equal ${tmp}
variable pxx1 equal -9438.38614164939
variable tmp equal pyy
variable pyy1 equal ${tmp}
variable pyy1 equal -6102.7356015209
variable tmp equal pzz
variable pzz1 equal ${tmp}
variable pzz1 equal -6551.11712629851
variable tmp equal pxy
variable pxy1 equal ${tmp}
variable pxy1 equal 1026.13318601431
variable tmp equal pxz
variable pxz1 equal ${tmp}
variable pxz1 equal 46.4827652432703
variable tmp equal pyz
variable pyz1 equal ${tmp}
variable pyz1 equal 174.790714829504

# Compute elastic constant from pressure tensor

variable C1pos equal ${d1}
variable C1pos equal 46.8778372317142
variable C2pos equal ${d2}
variable C2pos equal 57.8778916389807
variable C3pos equal ${d3}
variable C3pos equal 42.1473653289311
variable C4pos equal ${d4}
variable C4pos equal 4.33205881099198
variable C5pos equal ${d5}
variable C5pos equal 7.0814401940157
variable C6pos equal ${d6}
variable C6pos equal -8.38226364488036

# Combine positive and negative

variable C1${dir} equal 0.5*(${C1neg}+${C1pos})
variable C11 equal 0.5*(${C1neg}+${C1pos})
variable C11 equal 0.5*(173.00238792165+${C1pos})
variable C11 equal 0.5*(173.00238792165+46.8778372317142)
variable C2${dir} equal 0.5*(${C2neg}+${C2pos})
variable C21 equal 0.5*(${C2neg}+${C2pos})
variable C21 equal 0.5*(147.934876705454+${C2pos})
variable C21 equal 0.5*(147.934876705454+57.8778916389807)
variable C3${dir} equal 0.5*(${C3neg}+${C3pos})
variable C31 equal 0.5*(${C3neg}+${C3pos})
variable C31 equal 0.5*(157.179112310786+${C3pos})
variable C31 equal 0.5*(157.179112310786+42.1473653289311)
variable C4${dir} equal 0.5*(${C4neg}+${C4pos})
variable C41 equal 0.5*(${C4neg}+${C4pos})
variable C41 equal 0.5*(-2.26081030917039+${C4pos})
variable C41 equal 0.5*(-2.26081030917039+4.33205881099198)
variable C5${dir} equal 0.5*(${C5neg}+${C5pos})
variable C51 equal 0.5*(${C5neg}+${C5pos})
variable C51 equal 0.5*(-3.985262568489+${C5pos})
variable C51 equal 0.5*(-3.985262568489+7.0814401940157)
variable C6${dir} equal 0.5*(${C6neg}+${C6pos})
variable C61 equal 0.5*(${C6neg}+${C6pos})
variable C61 equal 0.5*(6.81033876430294+${C6pos})
variable C61 equal 0.5*(6.81033876430294+-8.38226364488036)

# Delete dir to make sure it is not reused

variable dir delete

# uyy Perturbation

variable dir equal 2
include ./LAMMPS_scripts/Bulk_finite/displace.mod
# NOTE: This script should not need to be
# modified. See in.elastic for more info.
#
# Find which reference length to use

if "${dir} == 1" then    "variable len0 equal ${lx0}"
if "${dir} == 2" then    "variable len0 equal ${ly0}"
variable len0 equal ${ly0}
variable len0 equal 25.9219622310997
if "${dir} == 3" then    "variable len0 equal ${lz0}"
if "${dir} == 4" then    "variable len0 equal ${lz0}"
if "${dir} == 5" then    "variable len0 equal ${lz0}"
if "${dir} == 6" then    "variable len0 equal ${ly0}"

# Reset box and simulation parameters

clear
OMP_NUM_THREADS environment is not set. Defaulting to 1 thread. (../comm.cpp:88)
  using 1 OpenMP thread(s) per MPI task
box tilt large
read_restart ./Outputs/lammps_out/Bulk_finite/restart.equil
  restoring atom style full from restart
  orthogonal box = (0 0 0) to (25.922 25.922 25.922)
  1 by 1 by 1 MPI processor grid
  pair style eam/fs stores no restart info
  1372 atoms
  0 = max # of 1-2 neighbors
  0 = max # of 1-3 neighbors
  0 = max # of 1-4 neighbors
  1 = max # of special neighbors
  special bonds CPU = 0.000127912 secs
  read_restart CPU = 0.000759928 secs
include ./LAMMPS_scripts/Bulk_finite/potential.mod
# NOTE: This script can be modified for different pair styles
# See in.elastic for more info.

reset_timestep 0

# Choose potential
variable pairstyle file pairsty.txt
pair_style ${pairstyle}
pair_style eam/fs
variable potential file potential.txt
variable type file type.txt
pair_coeff * * ${potential} ${type}
pair_coeff * * Cu1.eam.fs ${type}
pair_coeff * * Cu1.eam.fs Cu

# Setup neighbor style
neighbor 1.0 nsq
neigh_modify once no every 1 delay 0 check yes

# Setup output

fix avp all ave/time  ${nevery} ${nrepeat} ${nfreq} c_thermo_press mode vector
fix avp all ave/time  10 ${nrepeat} ${nfreq} c_thermo_press mode vector
fix avp all ave/time  10 10 ${nfreq} c_thermo_press mode vector
fix avp all ave/time  10 10 100 c_thermo_press mode vector
thermo		${nthermo}
thermo		100
thermo_style custom step temp pe press f_avp[1] f_avp[2] f_avp[3] f_avp[4] f_avp[5] f_avp[6]
thermo_modify norm no

# Setup MD

timestep ${timestep}
timestep 0.001
fix 4 all nve
if "${thermostat} == 1" then    "fix 5 all langevin ${temp} ${temp} ${tdamp} ${seed}"
fix 5 all langevin ${temp} ${temp} ${tdamp} ${seed}
fix 5 all langevin 1482.07786282049 ${temp} ${tdamp} ${seed}
fix 5 all langevin 1482.07786282049 1482.07786282049 ${tdamp} ${seed}
fix 5 all langevin 1482.07786282049 1482.07786282049 0.01 ${seed}
fix 5 all langevin 1482.07786282049 1482.07786282049 0.01 123457



# Negative deformation

variable delta equal -${up}*${len0}
variable delta equal -0.02*${len0}
variable delta equal -0.02*25.9219622310997
variable deltaxy equal -${up}*xy
variable deltaxy equal -0.02*xy
variable deltaxz equal -${up}*xz
variable deltaxz equal -0.02*xz
variable deltayz equal -${up}*yz
variable deltayz equal -0.02*yz
change_box all triclinic
  triclinic box = (0 0 0) to (25.922 25.922 25.922) with tilt (0 0 0)
if "${dir} == 1" then    "change_box all x delta 0 ${delta} xy delta ${deltaxy} xz delta ${deltaxz} remap units box"
if "${dir} == 2" then    "change_box all y delta 0 ${delta} yz delta ${deltayz} remap units box"
change_box all y delta 0 ${delta} yz delta ${deltayz} remap units box
change_box all y delta 0 -0.518439244621994 yz delta ${deltayz} remap units box
change_box all y delta 0 -0.518439244621994 yz delta -0 remap units box
  triclinic box = (0 0 0) to (25.922 25.4035 25.922) with tilt (0 0 0)
  triclinic box = (0 0 0) to (25.922 25.4035 25.922) with tilt (0 0 0)
if "${dir} == 3" then    "change_box all z delta 0 ${delta} remap units box"
if "${dir} == 4" then    "change_box all yz delta ${delta} remap units box"
if "${dir} == 5" then    "change_box all xz delta ${delta} remap units box"
if "${dir} == 6" then    "change_box all xy delta ${delta} remap units box"

# Run MD

run ${nequil}
run 1000
Neighbor list info ...
  update every 1 steps, delay 0 steps, check yes
  max neighbors/atom: 2000, page size: 100000
  master list distance cutoff = 7
  ghost atom cutoff = 7
  1 neighbor lists, perpetual/occasional/extra = 1 0 0
  (1) pair eam/fs, perpetual
      attributes: half, newton on
      pair build: half/nsq/newton
      stencil: none
      bin: none
Per MPI rank memory allocation (min/avg/max) = 6.03 | 6.03 | 6.03 Mbytes
Step Temp PotEng Press f_avp[1] f_avp[2] f_avp[3] f_avp[4] f_avp[5] f_avp[6] 
       0    1428.6257   -4179.0555    28401.832            0            0            0            0            0            0 
     100    1447.8264   -4131.5481    34402.809    28428.143    40327.674    28194.755    359.77778    1933.1971   -550.09513 
     200     1469.374   -4098.6353    40944.453    31995.209    46289.876    35306.762   -173.01966    1326.3445   -205.13708 
     300    1404.2113   -4078.1114    42537.742    37902.785    48199.328    41046.764   -861.30869    1592.3587   -6.0650022 
     400     1458.963    -4102.574    39619.401    41983.263    44387.252    42207.616    139.47114    1271.5702   -199.02049 
     500    1542.9141   -4125.4633    38613.052    37599.303    39845.888    38353.227    1187.1009    1640.8132   -1028.5287 
     600    1555.1982   -4134.0199     36828.22    34106.963    40509.406    36874.064   -815.67905    14.489135   -2205.5542 
     700    1486.0299   -4145.6619    33874.271    30861.048    40467.943    33208.239   -199.33193   -544.08324    -1256.374 
     800    1502.5794    -4151.623    33953.724    30767.585    36319.449    31371.278    438.01106   -267.95592   -2757.6812 
     900    1467.2334   -4157.7591    31218.179    30288.299    35925.178    30235.824   -1020.2449   -1113.4917    -1661.123 
    1000    1418.9669   -4169.7289    29609.562    29021.945    35107.334    28440.319   -963.37581   -99.830202   -1609.1858 
Loop time of 3.6727 on 1 procs for 1000 steps with 1372 atoms

Performance: 23.525 ns/day, 1.020 hours/ns, 272.280 timesteps/s
99.6% CPU use with 1 MPI tasks x 1 OpenMP threads

MPI task timing breakdown:
Section |  min time  |  avg time  |  max time  |%varavg| %total
---------------------------------------------------------------
Pair    | 2.964      | 2.964      | 2.964      |   0.0 | 80.70
Bond    | 0.00010767 | 0.00010767 | 0.00010767 |   0.0 |  0.00
Neigh   | 0.62818    | 0.62818    | 0.62818    |   0.0 | 17.10
Comm    | 0.014063   | 0.014063   | 0.014063   |   0.0 |  0.38
Output  | 0.00021309 | 0.00021309 | 0.00021309 |   0.0 |  0.01
Modify  | 0.060593   | 0.060593   | 0.060593   |   0.0 |  1.65
Other   |            | 0.005578   |            |       |  0.15

Nlocal:    1372 ave 1372 max 1372 min
Histogram: 1 0 0 0 0 0 0 0 0 0
Nghost:    3345 ave 3345 max 3345 min
Histogram: 1 0 0 0 0 0 0 0 0 0
Neighs:    80399 ave 80399 max 80399 min
Histogram: 1 0 0 0 0 0 0 0 0 0

Total # of neighbors = 80399
Ave neighs/atom = 58.5999
Ave special neighs/atom = 0
Neighbor list builds = 19
Dangerous builds = 0
include ./LAMMPS_scripts/Bulk_finite/potential.mod
# NOTE: This script can be modified for different pair styles
# See in.elastic for more info.

reset_timestep 0

# Choose potential
variable pairstyle file pairsty.txt
pair_style ${pairstyle}
pair_style eam/fs
variable potential file potential.txt
variable type file type.txt
pair_coeff * * ${potential} ${type}
pair_coeff * * Cu1.eam.fs ${type}
pair_coeff * * Cu1.eam.fs Cu

# Setup neighbor style
neighbor 1.0 nsq
neigh_modify once no every 1 delay 0 check yes

# Setup output

fix avp all ave/time  ${nevery} ${nrepeat} ${nfreq} c_thermo_press mode vector
fix avp all ave/time  10 ${nrepeat} ${nfreq} c_thermo_press mode vector
fix avp all ave/time  10 10 ${nfreq} c_thermo_press mode vector
fix avp all ave/time  10 10 100 c_thermo_press mode vector
thermo		${nthermo}
thermo		100
thermo_style custom step temp pe press f_avp[1] f_avp[2] f_avp[3] f_avp[4] f_avp[5] f_avp[6]
WARNING: New thermo_style command, previous thermo_modify settings will be lost (../output.cpp:705)
thermo_modify norm no

# Setup MD

timestep ${timestep}
timestep 0.001
fix 4 all nve
if "${thermostat} == 1" then    "fix 5 all langevin ${temp} ${temp} ${tdamp} ${seed}"
fix 5 all langevin ${temp} ${temp} ${tdamp} ${seed}
fix 5 all langevin 1482.07786282049 ${temp} ${tdamp} ${seed}
fix 5 all langevin 1482.07786282049 1482.07786282049 ${tdamp} ${seed}
fix 5 all langevin 1482.07786282049 1482.07786282049 0.01 ${seed}
fix 5 all langevin 1482.07786282049 1482.07786282049 0.01 123457


run ${nrun}
run 300
Per MPI rank memory allocation (min/avg/max) = 6.055 | 6.055 | 6.055 Mbytes
Step Temp PotEng Press f_avp[1] f_avp[2] f_avp[3] f_avp[4] f_avp[5] f_avp[6] 
       0    1418.9669   -4169.7289    29609.562            0            0            0            0            0            0 
     100    1462.2655   -4159.4089    29864.735    26900.685    33922.973    27512.826     2163.847    517.91554   -246.04511 
     200    1487.5289   -4144.8994    33734.714     27881.84    35923.396     30566.12    1535.9711    192.45389    538.49647 
     300    1424.5949   -4138.0514    33371.845    32251.697    35970.835    33149.533    786.81178     571.9766    541.00744 
Loop time of 1.05869 on 1 procs for 300 steps with 1372 atoms

Performance: 24.483 ns/day, 0.980 hours/ns, 283.369 timesteps/s
99.7% CPU use with 1 MPI tasks x 1 OpenMP threads

MPI task timing breakdown:
Section |  min time  |  avg time  |  max time  |%varavg| %total
---------------------------------------------------------------
Pair    | 0.87246    | 0.87246    | 0.87246    |   0.0 | 82.41
Bond    | 3.1947e-05 | 3.1947e-05 | 3.1947e-05 |   0.0 |  0.00
Neigh   | 0.16235    | 0.16235    | 0.16235    |   0.0 | 15.34
Comm    | 0.0041184  | 0.0041184  | 0.0041184  |   0.0 |  0.39
Output  | 5.9948e-05 | 5.9948e-05 | 5.9948e-05 |   0.0 |  0.01
Modify  | 0.018033   | 0.018033   | 0.018033   |   0.0 |  1.70
Other   |            | 0.001636   |            |       |  0.15

Nlocal:    1372 ave 1372 max 1372 min
Histogram: 1 0 0 0 0 0 0 0 0 0
Nghost:    3409 ave 3409 max 3409 min
Histogram: 1 0 0 0 0 0 0 0 0 0
Neighs:    80054 ave 80054 max 80054 min
Histogram: 1 0 0 0 0 0 0 0 0 0

Total # of neighbors = 80054
Ave neighs/atom = 58.3484
Ave special neighs/atom = 0
Neighbor list builds = 5
Dangerous builds = 0

# Obtain new stress tensor

variable pxx1 equal f_avp[1]
variable pyy1 equal f_avp[2]
variable pzz1 equal f_avp[3]
variable pxy1 equal f_avp[4]
variable pxz1 equal f_avp[5]
variable pyz1 equal f_avp[6]

# Compute elastic constant from pressure tensor

variable C1neg equal ${d1}
variable C1neg equal 161.572579258803
variable C2neg equal ${d2}
variable C2neg equal 152.489963783776
variable C3neg equal ${d3}
variable C3neg equal 156.355886943816
variable C4neg equal ${d4}
variable C4neg equal -2.50097519774907
variable C5neg equal ${d5}
variable C5neg equal -4.45397100822657
variable C6neg equal ${d6}
variable C6neg equal 7.18565663366843

# Reset box and simulation parameters

clear
OMP_NUM_THREADS environment is not set. Defaulting to 1 thread. (../comm.cpp:88)
  using 1 OpenMP thread(s) per MPI task
box tilt large
read_restart ./Outputs/lammps_out/Bulk_finite/restart.equil
  restoring atom style full from restart
  orthogonal box = (0 0 0) to (25.922 25.922 25.922)
  1 by 1 by 1 MPI processor grid
  pair style eam/fs stores no restart info
  1372 atoms
  0 = max # of 1-2 neighbors
  0 = max # of 1-3 neighbors
  0 = max # of 1-4 neighbors
  1 = max # of special neighbors
  special bonds CPU = 0.000121358 secs
  read_restart CPU = 0.000564471 secs
include ./LAMMPS_scripts/Bulk_finite/potential.mod
# NOTE: This script can be modified for different pair styles
# See in.elastic for more info.

reset_timestep 0

# Choose potential
variable pairstyle file pairsty.txt
pair_style ${pairstyle}
pair_style eam/fs
variable potential file potential.txt
variable type file type.txt
pair_coeff * * ${potential} ${type}
pair_coeff * * Cu1.eam.fs ${type}
pair_coeff * * Cu1.eam.fs Cu

# Setup neighbor style
neighbor 1.0 nsq
neigh_modify once no every 1 delay 0 check yes

# Setup output

fix avp all ave/time  ${nevery} ${nrepeat} ${nfreq} c_thermo_press mode vector
fix avp all ave/time  10 ${nrepeat} ${nfreq} c_thermo_press mode vector
fix avp all ave/time  10 10 ${nfreq} c_thermo_press mode vector
fix avp all ave/time  10 10 100 c_thermo_press mode vector
thermo		${nthermo}
thermo		100
thermo_style custom step temp pe press f_avp[1] f_avp[2] f_avp[3] f_avp[4] f_avp[5] f_avp[6]
thermo_modify norm no

# Setup MD

timestep ${timestep}
timestep 0.001
fix 4 all nve
if "${thermostat} == 1" then    "fix 5 all langevin ${temp} ${temp} ${tdamp} ${seed}"
fix 5 all langevin ${temp} ${temp} ${tdamp} ${seed}
fix 5 all langevin 1482.07786282049 ${temp} ${tdamp} ${seed}
fix 5 all langevin 1482.07786282049 1482.07786282049 ${tdamp} ${seed}
fix 5 all langevin 1482.07786282049 1482.07786282049 0.01 ${seed}
fix 5 all langevin 1482.07786282049 1482.07786282049 0.01 123457



# Positive deformation

variable delta equal ${up}*${len0}
variable delta equal 0.02*${len0}
variable delta equal 0.02*25.9219622310997
variable deltaxy equal ${up}*xy
variable deltaxy equal 0.02*xy
variable deltaxz equal ${up}*xz
variable deltaxz equal 0.02*xz
variable deltayz equal ${up}*yz
variable deltayz equal 0.02*yz
change_box all triclinic
  triclinic box = (0 0 0) to (25.922 25.922 25.922) with tilt (0 0 0)
if "${dir} == 1" then    "change_box all x delta 0 ${delta} xy delta ${deltaxy} xz delta ${deltaxz} remap units box"
if "${dir} == 2" then    "change_box all y delta 0 ${delta} yz delta ${deltayz} remap units box"
change_box all y delta 0 ${delta} yz delta ${deltayz} remap units box
change_box all y delta 0 0.518439244621994 yz delta ${deltayz} remap units box
change_box all y delta 0 0.518439244621994 yz delta 0 remap units box
  triclinic box = (0 0 0) to (25.922 26.4404 25.922) with tilt (0 0 0)
  triclinic box = (0 0 0) to (25.922 26.4404 25.922) with tilt (0 0 0)
if "${dir} == 3" then    "change_box all z delta 0 ${delta} remap units box"
if "${dir} == 4" then    "change_box all yz delta ${delta} remap units box"
if "${dir} == 5" then    "change_box all xz delta ${delta} remap units box"
if "${dir} == 6" then    "change_box all xy delta ${delta} remap units box"

# Run MD

run ${nequil}
run 1000
Neighbor list info ...
  update every 1 steps, delay 0 steps, check yes
  max neighbors/atom: 2000, page size: 100000
  master list distance cutoff = 7
  ghost atom cutoff = 7
  1 neighbor lists, perpetual/occasional/extra = 1 0 0
  (1) pair eam/fs, perpetual
      attributes: half, newton on
      pair build: half/nsq/newton
      stencil: none
      bin: none
Per MPI rank memory allocation (min/avg/max) = 6.028 | 6.028 | 6.028 Mbytes
Step Temp PotEng Press f_avp[1] f_avp[2] f_avp[3] f_avp[4] f_avp[5] f_avp[6] 
       0    1428.6257    -4174.566   -23060.004            0            0            0            0            0            0 
     100    1448.0801   -4117.4091   -12383.992   -15885.212   -17638.709   -15934.529    407.22904    2002.9553   -426.27268 
     200     1469.385   -4080.4681   -3665.0475   -10412.541   -6773.9963   -7014.6495    161.93115    1718.3099   -278.63349 
     300    1402.7648   -4052.8138      725.276   -2833.4884    899.36391    603.42278    -839.8888    1910.2427    55.990665 
     400    1458.2771   -4073.9749   -2141.6422    1420.0933   -325.76195    1965.5964   -44.140603    1602.9193   -73.600308 
     500    1543.7154   -4095.3505   -3972.3629   -3155.2392   -5955.7455   -2747.2902    722.71761    2224.5451   -907.08506 
     600    1556.5106   -4102.8647   -6171.8703   -6455.9798   -5792.7008   -3869.0182   -1079.2222    500.79243   -2000.8653 
     700    1483.5757   -4112.4209   -8728.3701   -9712.5882   -6234.8528   -7295.3626   -705.82914   -123.30575   -1067.7556 
     800    1504.1282   -4118.8506   -8948.7664   -10361.542   -10487.562   -8909.9309   -169.64862   -192.99746    -2333.588 
     900    1466.8647   -4123.2224   -12035.629   -10628.002   -11403.353   -10676.095   -1576.4081   -1299.8305   -1584.0663 
    1000    1417.3655   -4134.1534   -13473.979   -12085.862   -12593.632   -12526.751   -1707.5894   -210.12109   -1616.6711 
Loop time of 3.46191 on 1 procs for 1000 steps with 1372 atoms

Performance: 24.957 ns/day, 0.962 hours/ns, 288.857 timesteps/s
99.7% CPU use with 1 MPI tasks x 1 OpenMP threads

MPI task timing breakdown:
Section |  min time  |  avg time  |  max time  |%varavg| %total
---------------------------------------------------------------
Pair    | 2.7719     | 2.7719     | 2.7719     |   0.0 | 80.07
Bond    | 0.00010797 | 0.00010797 | 0.00010797 |   0.0 |  0.00
Neigh   | 0.61041    | 0.61041    | 0.61041    |   0.0 | 17.63
Comm    | 0.013875   | 0.013875   | 0.013875   |   0.0 |  0.40
Output  | 0.00020783 | 0.00020783 | 0.00020783 |   0.0 |  0.01
Modify  | 0.059951   | 0.059951   | 0.059951   |   0.0 |  1.73
Other   |            | 0.005469   |            |       |  0.16

Nlocal:    1372 ave 1372 max 1372 min
Histogram: 1 0 0 0 0 0 0 0 0 0
Nghost:    3314 ave 3314 max 3314 min
Histogram: 1 0 0 0 0 0 0 0 0 0
Neighs:    76146 ave 76146 max 76146 min
Histogram: 1 0 0 0 0 0 0 0 0 0

Total # of neighbors = 76146
Ave neighs/atom = 55.5
Ave special neighs/atom = 0
Neighbor list builds = 19
Dangerous builds = 0
include ./LAMMPS_scripts/Bulk_finite/potential.mod
# NOTE: This script can be modified for different pair styles
# See in.elastic for more info.

reset_timestep 0

# Choose potential
variable pairstyle file pairsty.txt
pair_style ${pairstyle}
pair_style eam/fs
variable potential file potential.txt
variable type file type.txt
pair_coeff * * ${potential} ${type}
pair_coeff * * Cu1.eam.fs ${type}
pair_coeff * * Cu1.eam.fs Cu

# Setup neighbor style
neighbor 1.0 nsq
neigh_modify once no every 1 delay 0 check yes

# Setup output

fix avp all ave/time  ${nevery} ${nrepeat} ${nfreq} c_thermo_press mode vector
fix avp all ave/time  10 ${nrepeat} ${nfreq} c_thermo_press mode vector
fix avp all ave/time  10 10 ${nfreq} c_thermo_press mode vector
fix avp all ave/time  10 10 100 c_thermo_press mode vector
thermo		${nthermo}
thermo		100
thermo_style custom step temp pe press f_avp[1] f_avp[2] f_avp[3] f_avp[4] f_avp[5] f_avp[6]
WARNING: New thermo_style command, previous thermo_modify settings will be lost (../output.cpp:705)
thermo_modify norm no

# Setup MD

timestep ${timestep}
timestep 0.001
fix 4 all nve
if "${thermostat} == 1" then    "fix 5 all langevin ${temp} ${temp} ${tdamp} ${seed}"
fix 5 all langevin ${temp} ${temp} ${tdamp} ${seed}
fix 5 all langevin 1482.07786282049 ${temp} ${tdamp} ${seed}
fix 5 all langevin 1482.07786282049 1482.07786282049 ${tdamp} ${seed}
fix 5 all langevin 1482.07786282049 1482.07786282049 0.01 ${seed}
fix 5 all langevin 1482.07786282049 1482.07786282049 0.01 123457


run ${nrun}
run 300
Per MPI rank memory allocation (min/avg/max) = 6.053 | 6.053 | 6.053 Mbytes
Step Temp PotEng Press f_avp[1] f_avp[2] f_avp[3] f_avp[4] f_avp[5] f_avp[6] 
       0    1417.3655   -4134.1534   -13473.979            0            0            0            0            0            0 
     100    1463.3955   -4122.5299   -12638.412   -14184.401   -13262.968   -13235.237    1688.8155    466.02109   -734.08341 
     200    1487.4212   -4108.3255   -7992.1315    -12463.04   -9982.5861   -9446.0093    1058.3444    440.03682     272.4219 
     300    1424.4767   -4099.5045   -7188.4258   -7688.6872    -7556.771   -6525.7319    493.83464    586.37177    202.78358 
Loop time of 1.04826 on 1 procs for 300 steps with 1372 atoms

Performance: 24.727 ns/day, 0.971 hours/ns, 286.188 timesteps/s
99.5% CPU use with 1 MPI tasks x 1 OpenMP threads

MPI task timing breakdown:
Section |  min time  |  avg time  |  max time  |%varavg| %total
---------------------------------------------------------------
Pair    | 0.83254    | 0.83254    | 0.83254    |   0.0 | 79.42
Bond    | 3.2199e-05 | 3.2199e-05 | 3.2199e-05 |   0.0 |  0.00
Neigh   | 0.19185    | 0.19185    | 0.19185    |   0.0 | 18.30
Comm    | 0.0041954  | 0.0041954  | 0.0041954  |   0.0 |  0.40
Output  | 5.9393e-05 | 5.9393e-05 | 5.9393e-05 |   0.0 |  0.01
Modify  | 0.017959   | 0.017959   | 0.017959   |   0.0 |  1.71
Other   |            | 0.001623   |            |       |  0.15

Nlocal:    1372 ave 1372 max 1372 min
Histogram: 1 0 0 0 0 0 0 0 0 0
Nghost:    3346 ave 3346 max 3346 min
Histogram: 1 0 0 0 0 0 0 0 0 0
Neighs:    75979 ave 75979 max 75979 min
Histogram: 1 0 0 0 0 0 0 0 0 0

Total # of neighbors = 75979
Ave neighs/atom = 55.3783
Ave special neighs/atom = 0
Neighbor list builds = 6
Dangerous builds = 0

# Obtain new stress tensor

variable tmp equal pe
variable e1 equal ${tmp}
variable e1 equal -4099.50450951511
variable tmp equal press
variable p1 equal ${tmp}
variable p1 equal -7188.42579602279
variable tmp equal pxx
variable pxx1 equal ${tmp}
variable pxx1 equal -7503.40560656333
variable tmp equal pyy
variable pyy1 equal ${tmp}
variable pyy1 equal -7342.82168431687
variable tmp equal pzz
variable pzz1 equal ${tmp}
variable pzz1 equal -6719.05009718808
variable tmp equal pxy
variable pxy1 equal ${tmp}
variable pxy1 equal 933.743580681067
variable tmp equal pxz
variable pxz1 equal ${tmp}
variable pxz1 equal 136.712821244154
variable tmp equal pyz
variable pyz1 equal ${tmp}
variable pyz1 equal 129.536579027313

# Compute elastic constant from pressure tensor

variable C1pos equal ${d1}
variable C1pos equal 37.2029345562839
variable C2pos equal ${d2}
variable C2pos equal 64.0783220529605
variable C3pos equal ${d3}
variable C3pos equal 42.987030183379
variable C4pos equal ${d4}
variable C4pos equal 4.55832949000294
variable C5pos equal ${d5}
variable C5pos equal 6.63028991401128
variable C6pos equal ${d6}
variable C6pos equal -7.92031561821415

# Combine positive and negative

variable C1${dir} equal 0.5*(${C1neg}+${C1pos})
variable C12 equal 0.5*(${C1neg}+${C1pos})
variable C12 equal 0.5*(161.572579258803+${C1pos})
variable C12 equal 0.5*(161.572579258803+37.2029345562839)
variable C2${dir} equal 0.5*(${C2neg}+${C2pos})
variable C22 equal 0.5*(${C2neg}+${C2pos})
variable C22 equal 0.5*(152.489963783776+${C2pos})
variable C22 equal 0.5*(152.489963783776+64.0783220529605)
variable C3${dir} equal 0.5*(${C3neg}+${C3pos})
variable C32 equal 0.5*(${C3neg}+${C3pos})
variable C32 equal 0.5*(156.355886943816+${C3pos})
variable C32 equal 0.5*(156.355886943816+42.987030183379)
variable C4${dir} equal 0.5*(${C4neg}+${C4pos})
variable C42 equal 0.5*(${C4neg}+${C4pos})
variable C42 equal 0.5*(-2.50097519774907+${C4pos})
variable C42 equal 0.5*(-2.50097519774907+4.55832949000294)
variable C5${dir} equal 0.5*(${C5neg}+${C5pos})
variable C52 equal 0.5*(${C5neg}+${C5pos})
variable C52 equal 0.5*(-4.45397100822657+${C5pos})
variable C52 equal 0.5*(-4.45397100822657+6.63028991401128)
variable C6${dir} equal 0.5*(${C6neg}+${C6pos})
variable C62 equal 0.5*(${C6neg}+${C6pos})
variable C62 equal 0.5*(7.18565663366843+${C6pos})
variable C62 equal 0.5*(7.18565663366843+-7.92031561821415)

# Delete dir to make sure it is not reused

variable dir delete

# uzz Perturbation

variable dir equal 3
include ./LAMMPS_scripts/Bulk_finite/displace.mod
# NOTE: This script should not need to be
# modified. See in.elastic for more info.
#
# Find which reference length to use

if "${dir} == 1" then    "variable len0 equal ${lx0}"
if "${dir} == 2" then    "variable len0 equal ${ly0}"
if "${dir} == 3" then    "variable len0 equal ${lz0}"
variable len0 equal ${lz0}
variable len0 equal 25.9219622310997
if "${dir} == 4" then    "variable len0 equal ${lz0}"
if "${dir} == 5" then    "variable len0 equal ${lz0}"
if "${dir} == 6" then    "variable len0 equal ${ly0}"

# Reset box and simulation parameters

clear
OMP_NUM_THREADS environment is not set. Defaulting to 1 thread. (../comm.cpp:88)
  using 1 OpenMP thread(s) per MPI task
box tilt large
read_restart ./Outputs/lammps_out/Bulk_finite/restart.equil
  restoring atom style full from restart
  orthogonal box = (0 0 0) to (25.922 25.922 25.922)
  1 by 1 by 1 MPI processor grid
  pair style eam/fs stores no restart info
  1372 atoms
  0 = max # of 1-2 neighbors
  0 = max # of 1-3 neighbors
  0 = max # of 1-4 neighbors
  1 = max # of special neighbors
  special bonds CPU = 0.000129084 secs
  read_restart CPU = 0.000689335 secs
include ./LAMMPS_scripts/Bulk_finite/potential.mod
# NOTE: This script can be modified for different pair styles
# See in.elastic for more info.

reset_timestep 0

# Choose potential
variable pairstyle file pairsty.txt
pair_style ${pairstyle}
pair_style eam/fs
variable potential file potential.txt
variable type file type.txt
pair_coeff * * ${potential} ${type}
pair_coeff * * Cu1.eam.fs ${type}
pair_coeff * * Cu1.eam.fs Cu

# Setup neighbor style
neighbor 1.0 nsq
neigh_modify once no every 1 delay 0 check yes

# Setup output

fix avp all ave/time  ${nevery} ${nrepeat} ${nfreq} c_thermo_press mode vector
fix avp all ave/time  10 ${nrepeat} ${nfreq} c_thermo_press mode vector
fix avp all ave/time  10 10 ${nfreq} c_thermo_press mode vector
fix avp all ave/time  10 10 100 c_thermo_press mode vector
thermo		${nthermo}
thermo		100
thermo_style custom step temp pe press f_avp[1] f_avp[2] f_avp[3] f_avp[4] f_avp[5] f_avp[6]
thermo_modify norm no

# Setup MD

timestep ${timestep}
timestep 0.001
fix 4 all nve
if "${thermostat} == 1" then    "fix 5 all langevin ${temp} ${temp} ${tdamp} ${seed}"
fix 5 all langevin ${temp} ${temp} ${tdamp} ${seed}
fix 5 all langevin 1482.07786282049 ${temp} ${tdamp} ${seed}
fix 5 all langevin 1482.07786282049 1482.07786282049 ${tdamp} ${seed}
fix 5 all langevin 1482.07786282049 1482.07786282049 0.01 ${seed}
fix 5 all langevin 1482.07786282049 1482.07786282049 0.01 123457



# Negative deformation

variable delta equal -${up}*${len0}
variable delta equal -0.02*${len0}
variable delta equal -0.02*25.9219622310997
variable deltaxy equal -${up}*xy
variable deltaxy equal -0.02*xy
variable deltaxz equal -${up}*xz
variable deltaxz equal -0.02*xz
variable deltayz equal -${up}*yz
variable deltayz equal -0.02*yz
change_box all triclinic
  triclinic box = (0 0 0) to (25.922 25.922 25.922) with tilt (0 0 0)
if "${dir} == 1" then    "change_box all x delta 0 ${delta} xy delta ${deltaxy} xz delta ${deltaxz} remap units box"
if "${dir} == 2" then    "change_box all y delta 0 ${delta} yz delta ${deltayz} remap units box"
if "${dir} == 3" then    "change_box all z delta 0 ${delta} remap units box"
change_box all z delta 0 ${delta} remap units box
change_box all z delta 0 -0.518439244621994 remap units box
  triclinic box = (0 0 0) to (25.922 25.922 25.4035) with tilt (0 0 0)
if "${dir} == 4" then    "change_box all yz delta ${delta} remap units box"
if "${dir} == 5" then    "change_box all xz delta ${delta} remap units box"
if "${dir} == 6" then    "change_box all xy delta ${delta} remap units box"

# Run MD

run ${nequil}
run 1000
Neighbor list info ...
  update every 1 steps, delay 0 steps, check yes
  max neighbors/atom: 2000, page size: 100000
  master list distance cutoff = 7
  ghost atom cutoff = 7
  1 neighbor lists, perpetual/occasional/extra = 1 0 0
  (1) pair eam/fs, perpetual
      attributes: half, newton on
      pair build: half/nsq/newton
      stencil: none
      bin: none
Per MPI rank memory allocation (min/avg/max) = 6.03 | 6.03 | 6.03 Mbytes
Step Temp PotEng Press f_avp[1] f_avp[2] f_avp[3] f_avp[4] f_avp[5] f_avp[6] 
       0    1428.6257   -4179.9421    28185.095            0            0            0            0            0            0 
     100    1447.8216   -4132.4777    34211.096     28333.06    33683.486    34524.705    281.93713    2103.7596   -388.35584 
     200    1469.2081   -4098.9938    41025.919    31969.503    41422.461     39887.79   -102.81261    1612.4697   -246.03988 
     300    1403.8177   -4077.7733    42571.939    37962.923     45357.53    44340.605   -939.02216    1874.2041   -72.244585 
     400    1459.0092   -4102.8282    39601.716    41691.609    42474.146    44284.849    30.094213     1405.354   -250.46806 
     500     1543.262   -4125.6357    38478.065    37287.501    37694.233    40509.613    842.81536    1855.2772   -1135.4539 
     600    1555.7909   -4134.6515    36623.485    33739.983    38191.409    39443.968   -1073.2739     222.7984   -2196.7911 
     700    1486.1841     -4145.32    33976.542    30615.669    37880.265    36034.464   -449.92465   -166.42645    -1292.973 
     800    1502.7765   -4152.0021    34054.151    30682.729    33670.378    34420.916     155.7587   -25.417681   -2637.6465 
     900    1468.5498   -4158.5239    30938.087    30082.095    33048.611    33125.835    -1557.452   -1089.9765   -1636.1327 
    1000    1418.4597   -4170.0634    29624.512     28663.46    32212.716     31409.32   -1409.9499   -39.499094   -1539.2368 
Loop time of 3.60624 on 1 procs for 1000 steps with 1372 atoms

Performance: 23.958 ns/day, 1.002 hours/ns, 277.297 timesteps/s
99.7% CPU use with 1 MPI tasks x 1 OpenMP threads

MPI task timing breakdown:
Section |  min time  |  avg time  |  max time  |%varavg| %total
---------------------------------------------------------------
Pair    | 2.9042     | 2.9042     | 2.9042     |   0.0 | 80.53
Bond    | 9.0987e-05 | 9.0987e-05 | 9.0987e-05 |   0.0 |  0.00
Neigh   | 0.62208    | 0.62208    | 0.62208    |   0.0 | 17.25
Comm    | 0.014023   | 0.014023   | 0.014023   |   0.0 |  0.39
Output  | 0.00020727 | 0.00020727 | 0.00020727 |   0.0 |  0.01
Modify  | 0.060066   | 0.060066   | 0.060066   |   0.0 |  1.67
Other   |            | 0.005583   |            |       |  0.15

Nlocal:    1372 ave 1372 max 1372 min
Histogram: 1 0 0 0 0 0 0 0 0 0
Nghost:    3357 ave 3357 max 3357 min
Histogram: 1 0 0 0 0 0 0 0 0 0
Neighs:    80359 ave 80359 max 80359 min
Histogram: 1 0 0 0 0 0 0 0 0 0

Total # of neighbors = 80359
Ave neighs/atom = 58.5707
Ave special neighs/atom = 0
Neighbor list builds = 19
Dangerous builds = 0
include ./LAMMPS_scripts/Bulk_finite/potential.mod
# NOTE: This script can be modified for different pair styles
# See in.elastic for more info.

reset_timestep 0

# Choose potential
variable pairstyle file pairsty.txt
pair_style ${pairstyle}
pair_style eam/fs
variable potential file potential.txt
variable type file type.txt
pair_coeff * * ${potential} ${type}
pair_coeff * * Cu1.eam.fs ${type}
pair_coeff * * Cu1.eam.fs Cu

# Setup neighbor style
neighbor 1.0 nsq
neigh_modify once no every 1 delay 0 check yes

# Setup output

fix avp all ave/time  ${nevery} ${nrepeat} ${nfreq} c_thermo_press mode vector
fix avp all ave/time  10 ${nrepeat} ${nfreq} c_thermo_press mode vector
fix avp all ave/time  10 10 ${nfreq} c_thermo_press mode vector
fix avp all ave/time  10 10 100 c_thermo_press mode vector
thermo		${nthermo}
thermo		100
thermo_style custom step temp pe press f_avp[1] f_avp[2] f_avp[3] f_avp[4] f_avp[5] f_avp[6]
WARNING: New thermo_style command, previous thermo_modify settings will be lost (../output.cpp:705)
thermo_modify norm no

# Setup MD

timestep ${timestep}
timestep 0.001
fix 4 all nve
if "${thermostat} == 1" then    "fix 5 all langevin ${temp} ${temp} ${tdamp} ${seed}"
fix 5 all langevin ${temp} ${temp} ${tdamp} ${seed}
fix 5 all langevin 1482.07786282049 ${temp} ${tdamp} ${seed}
fix 5 all langevin 1482.07786282049 1482.07786282049 ${tdamp} ${seed}
fix 5 all langevin 1482.07786282049 1482.07786282049 0.01 ${seed}
fix 5 all langevin 1482.07786282049 1482.07786282049 0.01 123457


run ${nrun}
run 300
Per MPI rank memory allocation (min/avg/max) = 6.055 | 6.055 | 6.055 Mbytes
Step Temp PotEng Press f_avp[1] f_avp[2] f_avp[3] f_avp[4] f_avp[5] f_avp[6] 
       0    1418.4597   -4170.0634    29624.512            0            0            0            0            0            0 
     100    1462.0924   -4159.7937    29845.614    26761.547     31324.99    30044.653    1789.0202     442.9087   -220.10697 
     200    1486.8286   -4145.0669    33851.985    27763.138    33677.523     32893.61    1205.8006     283.8794    504.81347 
     300     1424.117   -4138.2112    33290.921    32098.731    34438.466    34940.389    446.71497    848.27131    266.43241 
Loop time of 1.05323 on 1 procs for 300 steps with 1372 atoms

Performance: 24.610 ns/day, 0.975 hours/ns, 284.837 timesteps/s
99.6% CPU use with 1 MPI tasks x 1 OpenMP threads

MPI task timing breakdown:
Section |  min time  |  avg time  |  max time  |%varavg| %total
---------------------------------------------------------------
Pair    | 0.86693    | 0.86693    | 0.86693    |   0.0 | 82.31
Bond    | 2.7262e-05 | 2.7262e-05 | 2.7262e-05 |   0.0 |  0.00
Neigh   | 0.16242    | 0.16242    | 0.16242    |   0.0 | 15.42
Comm    | 0.0041587  | 0.0041587  | 0.0041587  |   0.0 |  0.39
Output  | 5.9052e-05 | 5.9052e-05 | 5.9052e-05 |   0.0 |  0.01
Modify  | 0.018003   | 0.018003   | 0.018003   |   0.0 |  1.71
Other   |            | 0.001639   |            |       |  0.16

Nlocal:    1372 ave 1372 max 1372 min
Histogram: 1 0 0 0 0 0 0 0 0 0
Nghost:    3371 ave 3371 max 3371 min
Histogram: 1 0 0 0 0 0 0 0 0 0
Neighs:    80090 ave 80090 max 80090 min
Histogram: 1 0 0 0 0 0 0 0 0 0

Total # of neighbors = 80090
Ave neighs/atom = 58.3746
Ave special neighs/atom = 0
Neighbor list builds = 5
Dangerous builds = 0

# Obtain new stress tensor

variable pxx1 equal f_avp[1]
variable pyy1 equal f_avp[2]
variable pzz1 equal f_avp[3]
variable pxy1 equal f_avp[4]
variable pxz1 equal f_avp[5]
variable pyz1 equal f_avp[6]

# Compute elastic constant from pressure tensor

variable C1neg equal ${d1}
variable C1neg equal 160.807748955958
variable C2neg equal ${d2}
variable C2neg equal 144.828118073072
variable C3neg equal ${d3}
variable C3neg equal 165.310164066543
variable C4neg equal ${d4}
variable C4neg equal -3.87385034654769
variable C5neg equal ${d5}
variable C5neg equal -3.07249745245029
variable C6neg equal ${d6}
variable C6neg equal 5.48517258167135

# Reset box and simulation parameters

clear
OMP_NUM_THREADS environment is not set. Defaulting to 1 thread. (../comm.cpp:88)
  using 1 OpenMP thread(s) per MPI task
box tilt large
read_restart ./Outputs/lammps_out/Bulk_finite/restart.equil
  restoring atom style full from restart
  orthogonal box = (0 0 0) to (25.922 25.922 25.922)
  1 by 1 by 1 MPI processor grid
  pair style eam/fs stores no restart info
  1372 atoms
  0 = max # of 1-2 neighbors
  0 = max # of 1-3 neighbors
  0 = max # of 1-4 neighbors
  1 = max # of special neighbors
  special bonds CPU = 0.000119062 secs
  read_restart CPU = 0.00103951 secs
include ./LAMMPS_scripts/Bulk_finite/potential.mod
# NOTE: This script can be modified for different pair styles
# See in.elastic for more info.

reset_timestep 0

# Choose potential
variable pairstyle file pairsty.txt
pair_style ${pairstyle}
pair_style eam/fs
variable potential file potential.txt
variable type file type.txt
pair_coeff * * ${potential} ${type}
pair_coeff * * Cu1.eam.fs ${type}
pair_coeff * * Cu1.eam.fs Cu

# Setup neighbor style
neighbor 1.0 nsq
neigh_modify once no every 1 delay 0 check yes

# Setup output

fix avp all ave/time  ${nevery} ${nrepeat} ${nfreq} c_thermo_press mode vector
fix avp all ave/time  10 ${nrepeat} ${nfreq} c_thermo_press mode vector
fix avp all ave/time  10 10 ${nfreq} c_thermo_press mode vector
fix avp all ave/time  10 10 100 c_thermo_press mode vector
thermo		${nthermo}
thermo		100
thermo_style custom step temp pe press f_avp[1] f_avp[2] f_avp[3] f_avp[4] f_avp[5] f_avp[6]
thermo_modify norm no

# Setup MD

timestep ${timestep}
timestep 0.001
fix 4 all nve
if "${thermostat} == 1" then    "fix 5 all langevin ${temp} ${temp} ${tdamp} ${seed}"
fix 5 all langevin ${temp} ${temp} ${tdamp} ${seed}
fix 5 all langevin 1482.07786282049 ${temp} ${tdamp} ${seed}
fix 5 all langevin 1482.07786282049 1482.07786282049 ${tdamp} ${seed}
fix 5 all langevin 1482.07786282049 1482.07786282049 0.01 ${seed}
fix 5 all langevin 1482.07786282049 1482.07786282049 0.01 123457



# Positive deformation

variable delta equal ${up}*${len0}
variable delta equal 0.02*${len0}
variable delta equal 0.02*25.9219622310997
variable deltaxy equal ${up}*xy
variable deltaxy equal 0.02*xy
variable deltaxz equal ${up}*xz
variable deltaxz equal 0.02*xz
variable deltayz equal ${up}*yz
variable deltayz equal 0.02*yz
change_box all triclinic
  triclinic box = (0 0 0) to (25.922 25.922 25.922) with tilt (0 0 0)
if "${dir} == 1" then    "change_box all x delta 0 ${delta} xy delta ${deltaxy} xz delta ${deltaxz} remap units box"
if "${dir} == 2" then    "change_box all y delta 0 ${delta} yz delta ${deltayz} remap units box"
if "${dir} == 3" then    "change_box all z delta 0 ${delta} remap units box"
change_box all z delta 0 ${delta} remap units box
change_box all z delta 0 0.518439244621994 remap units box
  triclinic box = (0 0 0) to (25.922 25.922 26.4404) with tilt (0 0 0)
if "${dir} == 4" then    "change_box all yz delta ${delta} remap units box"
if "${dir} == 5" then    "change_box all xz delta ${delta} remap units box"
if "${dir} == 6" then    "change_box all xy delta ${delta} remap units box"

# Run MD

run ${nequil}
run 1000
Neighbor list info ...
  update every 1 steps, delay 0 steps, check yes
  max neighbors/atom: 2000, page size: 100000
  master list distance cutoff = 7
  ghost atom cutoff = 7
  1 neighbor lists, perpetual/occasional/extra = 1 0 0
  (1) pair eam/fs, perpetual
      attributes: half, newton on
      pair build: half/nsq/newton
      stencil: none
      bin: none
Per MPI rank memory allocation (min/avg/max) = 6.028 | 6.028 | 6.028 Mbytes
Step Temp PotEng Press f_avp[1] f_avp[2] f_avp[3] f_avp[4] f_avp[5] f_avp[6] 
       0    1428.6257    -4173.778   -22938.273            0            0            0            0            0            0 
     100    1448.2047   -4116.4451   -12336.396   -15841.177   -10765.946   -22827.473    446.16379    1795.2166   -563.68101 
     200    1469.3403   -4080.0451   -3707.8933   -10379.248   -1225.5619   -12287.579    36.395407    1453.6118   -217.01073 
     300    1403.1431   -4052.8987    527.25083   -2915.7158    4512.5186   -3462.8926   -765.91511    1607.6723     36.91204 
     400    1458.2328   -4073.7161   -2038.9847    1660.2495     2276.354   -1028.2083    4.7195074    1455.3409   -3.0976805 
     500    1542.8618   -4095.1502   -3718.2427   -2807.8136   -3077.0472   -5546.3796    1093.3629    1915.0822   -887.08711 
     600    1555.9043   -4102.1576   -5977.6817   -6101.2577   -2718.1885    -7085.021    -809.7429    127.38047   -1991.9069 
     700    1483.7775   -4112.5571   -8777.6707   -9514.4546   -3138.1498   -10707.698   -441.84413   -515.86018   -876.03319 
     800    1504.4345   -4118.1349   -9129.4348   -10134.967   -7455.7827     -12542.8    91.151943   -480.37656    -2353.956 
     900    1465.6007   -4122.4899   -11807.968   -10301.033   -8268.2892   -13982.214   -1179.8756   -1393.7056   -1574.0444 
    1000    1417.8832   -4133.6492   -13387.463   -11487.744   -9367.4779   -15616.509    -1273.695    -364.7074   -1657.8306 
Loop time of 3.46221 on 1 procs for 1000 steps with 1372 atoms

Performance: 24.955 ns/day, 0.962 hours/ns, 288.833 timesteps/s
99.7% CPU use with 1 MPI tasks x 1 OpenMP threads

MPI task timing breakdown:
Section |  min time  |  avg time  |  max time  |%varavg| %total
---------------------------------------------------------------
Pair    | 2.7752     | 2.7752     | 2.7752     |   0.0 | 80.16
Bond    | 8.4536e-05 | 8.4536e-05 | 8.4536e-05 |   0.0 |  0.00
Neigh   | 0.60752    | 0.60752    | 0.60752    |   0.0 | 17.55
Comm    | 0.013861   | 0.013861   | 0.013861   |   0.0 |  0.40
Output  | 0.00019609 | 0.00019609 | 0.00019609 |   0.0 |  0.01
Modify  | 0.059901   | 0.059901   | 0.059901   |   0.0 |  1.73
Other   |            | 0.005475   |            |       |  0.16

Nlocal:    1372 ave 1372 max 1372 min
Histogram: 1 0 0 0 0 0 0 0 0 0
Nghost:    3317 ave 3317 max 3317 min
Histogram: 1 0 0 0 0 0 0 0 0 0
Neighs:    76234 ave 76234 max 76234 min
Histogram: 1 0 0 0 0 0 0 0 0 0

Total # of neighbors = 76234
Ave neighs/atom = 55.5641
Ave special neighs/atom = 0
Neighbor list builds = 19
Dangerous builds = 0
include ./LAMMPS_scripts/Bulk_finite/potential.mod
# NOTE: This script can be modified for different pair styles
# See in.elastic for more info.

reset_timestep 0

# Choose potential
variable pairstyle file pairsty.txt
pair_style ${pairstyle}
pair_style eam/fs
variable potential file potential.txt
variable type file type.txt
pair_coeff * * ${potential} ${type}
pair_coeff * * Cu1.eam.fs ${type}
pair_coeff * * Cu1.eam.fs Cu

# Setup neighbor style
neighbor 1.0 nsq
neigh_modify once no every 1 delay 0 check yes

# Setup output

fix avp all ave/time  ${nevery} ${nrepeat} ${nfreq} c_thermo_press mode vector
fix avp all ave/time  10 ${nrepeat} ${nfreq} c_thermo_press mode vector
fix avp all ave/time  10 10 ${nfreq} c_thermo_press mode vector
fix avp all ave/time  10 10 100 c_thermo_press mode vector
thermo		${nthermo}
thermo		100
thermo_style custom step temp pe press f_avp[1] f_avp[2] f_avp[3] f_avp[4] f_avp[5] f_avp[6]
WARNING: New thermo_style command, previous thermo_modify settings will be lost (../output.cpp:705)
thermo_modify norm no

# Setup MD

timestep ${timestep}
timestep 0.001
fix 4 all nve
if "${thermostat} == 1" then    "fix 5 all langevin ${temp} ${temp} ${tdamp} ${seed}"
fix 5 all langevin ${temp} ${temp} ${tdamp} ${seed}
fix 5 all langevin 1482.07786282049 ${temp} ${tdamp} ${seed}
fix 5 all langevin 1482.07786282049 1482.07786282049 ${tdamp} ${seed}
fix 5 all langevin 1482.07786282049 1482.07786282049 0.01 ${seed}
fix 5 all langevin 1482.07786282049 1482.07786282049 0.01 123457


run ${nrun}
run 300
Per MPI rank memory allocation (min/avg/max) = 6.052 | 6.052 | 6.052 Mbytes
Step Temp PotEng Press f_avp[1] f_avp[2] f_avp[3] f_avp[4] f_avp[5] f_avp[6] 
[...]
variable C2neg equal 41.4506758355034
variable C3neg equal ${d3}
variable C3neg equal 50.494408782536
variable C4neg equal ${d4}
variable C4neg equal -3.71711610225871
variable C5neg equal ${d5}
variable C5neg equal -4.24143630056081
variable C6neg equal ${d6}
variable C6neg equal 43.6680421500732

# Reset box and simulation parameters

clear
OMP_NUM_THREADS environment is not set. Defaulting to 1 thread. (../comm.cpp:88)
  using 1 OpenMP thread(s) per MPI task
box tilt large
read_restart ./Outputs/lammps_out/Bulk_finite/restart.equil
  restoring atom style full from restart
  orthogonal box = (0 0 0) to (25.922 25.922 25.922)
  1 by 1 by 1 MPI processor grid
  pair style eam/fs stores no restart info
  1372 atoms
  0 = max # of 1-2 neighbors
  0 = max # of 1-3 neighbors
  0 = max # of 1-4 neighbors
  1 = max # of special neighbors
  special bonds CPU = 0.000126968 secs
  read_restart CPU = 0.000715273 secs
include ./LAMMPS_scripts/Bulk_finite/potential.mod
# NOTE: This script can be modified for different pair styles
# See in.elastic for more info.

reset_timestep 0

# Choose potential
variable pairstyle file pairsty.txt
pair_style ${pairstyle}
pair_style eam/fs
variable potential file potential.txt
variable type file type.txt
pair_coeff * * ${potential} ${type}
pair_coeff * * Cu1.eam.fs ${type}
pair_coeff * * Cu1.eam.fs Cu

# Setup neighbor style
neighbor 1.0 nsq
neigh_modify once no every 1 delay 0 check yes

# Setup output

fix avp all ave/time  ${nevery} ${nrepeat} ${nfreq} c_thermo_press mode vector
fix avp all ave/time  10 ${nrepeat} ${nfreq} c_thermo_press mode vector
fix avp all ave/time  10 10 ${nfreq} c_thermo_press mode vector
fix avp all ave/time  10 10 100 c_thermo_press mode vector
thermo		${nthermo}
thermo		100
thermo_style custom step temp pe press f_avp[1] f_avp[2] f_avp[3] f_avp[4] f_avp[5] f_avp[6]
thermo_modify norm no

# Setup MD

timestep ${timestep}
timestep 0.001
fix 4 all nve
if "${thermostat} == 1" then    "fix 5 all langevin ${temp} ${temp} ${tdamp} ${seed}"
fix 5 all langevin ${temp} ${temp} ${tdamp} ${seed}
fix 5 all langevin 1482.07786282049 ${temp} ${tdamp} ${seed}
fix 5 all langevin 1482.07786282049 1482.07786282049 ${tdamp} ${seed}
fix 5 all langevin 1482.07786282049 1482.07786282049 0.01 ${seed}
fix 5 all langevin 1482.07786282049 1482.07786282049 0.01 123457



# Positive deformation

variable delta equal ${up}*${len0}
variable delta equal 0.02*${len0}
variable delta equal 0.02*25.9219622310997
variable deltaxy equal ${up}*xy
variable deltaxy equal 0.02*xy
variable deltaxz equal ${up}*xz
variable deltaxz equal 0.02*xz
variable deltayz equal ${up}*yz
variable deltayz equal 0.02*yz
change_box all triclinic
  triclinic box = (0 0 0) to (25.922 25.922 25.922) with tilt (0 0 0)
if "${dir} == 1" then    "change_box all x delta 0 ${delta} xy delta ${deltaxy} xz delta ${deltaxz} remap units box"
if "${dir} == 2" then    "change_box all y delta 0 ${delta} yz delta ${deltayz} remap units box"
if "${dir} == 3" then    "change_box all z delta 0 ${delta} remap units box"
if "${dir} == 4" then    "change_box all yz delta ${delta} remap units box"
if "${dir} == 5" then    "change_box all xz delta ${delta} remap units box"
if "${dir} == 6" then    "change_box all xy delta ${delta} remap units box"
change_box all xy delta ${delta} remap units box
change_box all xy delta 0.518439244621994 remap units box
  triclinic box = (0 0 0) to (25.922 25.922 25.922) with tilt (0.518439 0 0)

# Run MD

run ${nequil}
run 1000
Neighbor list info ...
  update every 1 steps, delay 0 steps, check yes
  max neighbors/atom: 2000, page size: 100000
  master list distance cutoff = 7
  ghost atom cutoff = 7
  1 neighbor lists, perpetual/occasional/extra = 1 0 0
  (1) pair eam/fs, perpetual
      attributes: half, newton on
      pair build: half/nsq/newton
      stencil: none
      bin: none
Per MPI rank memory allocation (min/avg/max) = 6.028 | 6.028 | 6.028 Mbytes
Step Temp PotEng Press f_avp[1] f_avp[2] f_avp[3] f_avp[4] f_avp[5] f_avp[6] 
       0    1428.6257     -4178.84    2072.5023            0            0            0            0            0            0 
     100    1447.4274   -4126.5131    10518.614    5410.6048    11139.092    5370.4918   -10033.253    1888.5458   -427.03746 
     200    1468.9907   -4091.3526    17995.833    10098.754    19726.453    13240.044    -8889.696     1455.887    -74.90736 
     300    1403.1296   -4067.2785    20769.001    16679.753    24288.191    19868.945   -8377.8577    1658.8578    107.38871 
     400    1458.8823   -4090.0511     17924.19    20794.892    21501.919    21043.975   -7133.7841    1205.9046    34.991451 
     500    1543.2657   -4111.9016    16651.827    16227.975    16404.394    17055.717   -6867.9347     1623.049   -764.35806 
     600    1555.7201   -4119.9311    14517.324    12856.815    17093.667    15774.885   -8981.9904   -5.3775638    -1910.184 
     700    1485.1403   -4131.0329    11649.198    9432.4792    16482.692    11993.463   -8680.7163   -517.22362   -886.46376 
     800    1503.5528   -4137.1504    11403.289    9098.9982    12283.784    10025.049   -8341.1593    -473.8934   -2403.6325 
     900    1466.7984   -4142.5469    8495.7428     8350.009    11588.713    8604.6153   -9780.1346   -1459.1127   -1614.1074 
    1000    1418.4305    -4154.515    7087.3035    7054.1748    10590.178    6861.4493   -9939.9914   -309.13413   -1768.6634 
Loop time of 3.56346 on 1 procs for 1000 steps with 1372 atoms

Performance: 24.246 ns/day, 0.990 hours/ns, 280.626 timesteps/s
99.7% CPU use with 1 MPI tasks x 1 OpenMP threads

MPI task timing breakdown:
Section |  min time  |  avg time  |  max time  |%varavg| %total
---------------------------------------------------------------
Pair    | 2.8684     | 2.8684     | 2.8684     |   0.0 | 80.50
Bond    | 9.8501e-05 | 9.8501e-05 | 9.8501e-05 |   0.0 |  0.00
Neigh   | 0.61476    | 0.61476    | 0.61476    |   0.0 | 17.25
Comm    | 0.014104   | 0.014104   | 0.014104   |   0.0 |  0.40
Output  | 0.00019607 | 0.00019607 | 0.00019607 |   0.0 |  0.01
Modify  | 0.060444   | 0.060444   | 0.060444   |   0.0 |  1.70
Other   |            | 0.005421   |            |       |  0.15

Nlocal:    1372 ave 1372 max 1372 min
Histogram: 1 0 0 0 0 0 0 0 0 0
Nghost:    3326 ave 3326 max 3326 min
Histogram: 1 0 0 0 0 0 0 0 0 0
Neighs:    78190 ave 78190 max 78190 min
Histogram: 1 0 0 0 0 0 0 0 0 0

Total # of neighbors = 78190
Ave neighs/atom = 56.9898
Ave special neighs/atom = 0
Neighbor list builds = 19
Dangerous builds = 0
include ./LAMMPS_scripts/Bulk_finite/potential.mod
# NOTE: This script can be modified for different pair styles
# See in.elastic for more info.

reset_timestep 0

# Choose potential
variable pairstyle file pairsty.txt
pair_style ${pairstyle}
pair_style eam/fs
variable potential file potential.txt
variable type file type.txt
pair_coeff * * ${potential} ${type}
pair_coeff * * Cu1.eam.fs ${type}
pair_coeff * * Cu1.eam.fs Cu

# Setup neighbor style
neighbor 1.0 nsq
neigh_modify once no every 1 delay 0 check yes

# Setup output

fix avp all ave/time  ${nevery} ${nrepeat} ${nfreq} c_thermo_press mode vector
fix avp all ave/time  10 ${nrepeat} ${nfreq} c_thermo_press mode vector
fix avp all ave/time  10 10 ${nfreq} c_thermo_press mode vector
fix avp all ave/time  10 10 100 c_thermo_press mode vector
thermo		${nthermo}
thermo		100
thermo_style custom step temp pe press f_avp[1] f_avp[2] f_avp[3] f_avp[4] f_avp[5] f_avp[6]
WARNING: New thermo_style command, previous thermo_modify settings will be lost (../output.cpp:705)
thermo_modify norm no

# Setup MD

timestep ${timestep}
timestep 0.001
fix 4 all nve
if "${thermostat} == 1" then    "fix 5 all langevin ${temp} ${temp} ${tdamp} ${seed}"
fix 5 all langevin ${temp} ${temp} ${tdamp} ${seed}
fix 5 all langevin 1482.07786282049 ${temp} ${tdamp} ${seed}
fix 5 all langevin 1482.07786282049 1482.07786282049 ${tdamp} ${seed}
fix 5 all langevin 1482.07786282049 1482.07786282049 0.01 ${seed}
fix 5 all langevin 1482.07786282049 1482.07786282049 0.01 123457


run ${nrun}
run 300
Per MPI rank memory allocation (min/avg/max) = 6.053 | 6.053 | 6.053 Mbytes
Step Temp PotEng Press f_avp[1] f_avp[2] f_avp[3] f_avp[4] f_avp[5] f_avp[6] 
       0    1418.4305    -4154.515    7087.3035            0            0            0            0            0            0 
     100    1462.5896   -4143.1333    7840.7106     5271.826    9861.6365    6268.2022   -6418.6607    316.20784     -529.766 
     200    1486.6595   -4128.8526    11982.098    6504.4683    12482.377    9707.7602   -6512.5346    271.19863    541.31429 
     300    1424.2836   -4121.3182    12149.716    11203.672    13707.467     12597.82    -6751.787    422.63632    367.48369 
Loop time of 1.04073 on 1 procs for 300 steps with 1372 atoms

Performance: 24.906 ns/day, 0.964 hours/ns, 288.259 timesteps/s
99.5% CPU use with 1 MPI tasks x 1 OpenMP threads

MPI task timing breakdown:
Section |  min time  |  avg time  |  max time  |%varavg| %total
---------------------------------------------------------------
Pair    | 0.85576    | 0.85576    | 0.85576    |   0.0 | 82.23
Bond    | 3.4541e-05 | 3.4541e-05 | 3.4541e-05 |   0.0 |  0.00
Neigh   | 0.16092    | 0.16092    | 0.16092    |   0.0 | 15.46
Comm    | 0.0041727  | 0.0041727  | 0.0041727  |   0.0 |  0.40
Output  | 6.2613e-05 | 6.2613e-05 | 6.2613e-05 |   0.0 |  0.01
Modify  | 0.018157   | 0.018157   | 0.018157   |   0.0 |  1.74
Other   |            | 0.001628   |            |       |  0.16

Nlocal:    1372 ave 1372 max 1372 min
Histogram: 1 0 0 0 0 0 0 0 0 0
Nghost:    3370 ave 3370 max 3370 min
Histogram: 1 0 0 0 0 0 0 0 0 0
Neighs:    78049 ave 78049 max 78049 min
Histogram: 1 0 0 0 0 0 0 0 0 0

Total # of neighbors = 78049
Ave neighs/atom = 56.887
Ave special neighs/atom = 0
Neighbor list builds = 5
Dangerous builds = 0

# Obtain new stress tensor

variable tmp equal pe
variable e1 equal ${tmp}
variable e1 equal -4121.31819649765
variable tmp equal press
variable p1 equal ${tmp}
variable p1 equal 12149.7164776388
variable tmp equal pxx
variable pxx1 equal ${tmp}
variable pxx1 equal 11212.8377805743
variable tmp equal pyy
variable pyy1 equal ${tmp}
variable pyy1 equal 13027.3233681418
variable tmp equal pzz
variable pzz1 equal ${tmp}
variable pzz1 equal 12208.9882842002
variable tmp equal pxy
variable pxy1 equal ${tmp}
variable pxy1 equal -5947.57583729175
variable tmp equal pxz
variable pxz1 equal ${tmp}
variable pxz1 equal -178.937977350371
variable tmp equal pyz
variable pyz1 equal ${tmp}
variable pyz1 equal 420.785304699395

# Compute elastic constant from pressure tensor

variable C1pos equal ${d1}
variable C1pos equal -56.3782823794043
variable C2pos equal ${d2}
variable C2pos equal -37.7724032093329
variable C3pos equal ${d3}
variable C3pos equal -51.6531617235625
variable C4pos equal ${d4}
variable C4pos equal 3.10208586164253
variable C5pos equal ${d5}
variable C5pos equal 8.20854390698391
variable C6pos equal ${d6}
variable C6pos equal 26.4862814716499

# Combine positive and negative

variable C1${dir} equal 0.5*(${C1neg}+${C1pos})
variable C16 equal 0.5*(${C1neg}+${C1pos})
variable C16 equal 0.5*(56.8497893208143+${C1pos})
variable C16 equal 0.5*(56.8497893208143+-56.3782823794043)
variable C2${dir} equal 0.5*(${C2neg}+${C2pos})
variable C26 equal 0.5*(${C2neg}+${C2pos})
variable C26 equal 0.5*(41.4506758355034+${C2pos})
variable C26 equal 0.5*(41.4506758355034+-37.7724032093329)
variable C3${dir} equal 0.5*(${C3neg}+${C3pos})
variable C36 equal 0.5*(${C3neg}+${C3pos})
variable C36 equal 0.5*(50.494408782536+${C3pos})
variable C36 equal 0.5*(50.494408782536+-51.6531617235625)
variable C4${dir} equal 0.5*(${C4neg}+${C4pos})
variable C46 equal 0.5*(${C4neg}+${C4pos})
variable C46 equal 0.5*(-3.71711610225871+${C4pos})
variable C46 equal 0.5*(-3.71711610225871+3.10208586164253)
variable C5${dir} equal 0.5*(${C5neg}+${C5pos})
variable C56 equal 0.5*(${C5neg}+${C5pos})
variable C56 equal 0.5*(-4.24143630056081+${C5pos})
variable C56 equal 0.5*(-4.24143630056081+8.20854390698391)
variable C6${dir} equal 0.5*(${C6neg}+${C6pos})
variable C66 equal 0.5*(${C6neg}+${C6pos})
variable C66 equal 0.5*(43.6680421500732+${C6pos})
variable C66 equal 0.5*(43.6680421500732+26.4862814716499)

# Delete dir to make sure it is not reused

variable dir delete

# Output final values

variable C11all equal ${C11}
variable C11all equal 109.940112576682
variable C22all equal ${C22}
variable C22all equal 108.284142918368
variable C33all equal ${C33}
variable C33all equal 107.609832621049

variable C12all equal 0.5*(${C12}+${C21})
variable C12all equal 0.5*(99.3877569075434+${C21})
variable C12all equal 0.5*(99.3877569075434+102.906384172217)
variable C13all equal 0.5*(${C13}+${C31})
variable C13all equal 0.5*(98.5289447372096+${C31})
variable C13all equal 0.5*(98.5289447372096+99.6632388198585)
variable C23all equal 0.5*(${C23}+${C32})
variable C23all equal 0.5*(100.455222433725+${C32})
variable C23all equal 0.5*(100.455222433725+99.6714585635975)

variable C44all equal ${C44}
variable C44all equal 35.0715185529761
variable C55all equal ${C55}
variable C55all equal 37.6617501401816
variable C66all equal ${C66}
variable C66all equal 35.0771618108615

variable C14all equal 0.5*(${C14}+${C41})
variable C14all equal 0.5*(0.72804175116725+${C41})
variable C14all equal 0.5*(0.72804175116725+1.0356242509108)
variable C15all equal 0.5*(${C15}+${C51})
variable C15all equal 0.5*(-0.446568836960999+${C51})
variable C15all equal 0.5*(-0.446568836960999+1.54808881276335)
variable C16all equal 0.5*(${C16}+${C61})
variable C16all equal 0.5*(0.235753470705003+${C61})
variable C16all equal 0.5*(0.235753470705003+-0.78596244028871)

variable C24all equal 0.5*(${C24}+${C42})
variable C24all equal 0.5*(1.2975094562475+${C42})
variable C24all equal 0.5*(1.2975094562475+1.02867714612694)
variable C25all equal 0.5*(${C25}+${C52})
variable C25all equal 0.5*(1.4170202530865+${C52})
variable C25all equal 0.5*(1.4170202530865+1.08815945289236)
variable C26all equal 0.5*(${C26}+${C62})
variable C26all equal 0.5*(1.83913631308525+${C62})
variable C26all equal 0.5*(1.83913631308525+-0.36732949227286)

variable C34all equal 0.5*(${C34}+${C43})
variable C34all equal 0.5*(0.345283405244+${C43})
variable C34all equal 0.5*(0.345283405244+0.0879229912746249)
variable C35all equal 0.5*(${C35}+${C53})
variable C35all equal 0.5*(0.977345012391201+${C53})
variable C35all equal 0.5*(0.977345012391201+2.51036419000682)
variable C36all equal 0.5*(${C36}+${C63})
variable C36all equal 0.5*(-0.57937647051325+${C63})
variable C36all equal 0.5*(-0.57937647051325+-2.13592882487116)

variable C45all equal 0.5*(${C45}+${C54})
variable C45all equal 0.5*(-1.00770770190431+${C54})
variable C45all equal 0.5*(-1.00770770190431+0.282055531871275)
variable C46all equal 0.5*(${C46}+${C64})
variable C46all equal 0.5*(-0.30751512030809+${C64})
variable C46all equal 0.5*(-0.30751512030809+-1.33101878487895)
variable C56all equal 0.5*(${C56}+${C65})
variable C56all equal 0.5*(1.98355380321155+${C65})
variable C56all equal 0.5*(1.98355380321155+-0.544124760898375)

# Average moduli for cubic crystals

variable C11cubic equal (${C11all}+${C22all}+${C33all})/3.0
variable C11cubic equal (109.940112576682+${C22all}+${C33all})/3.0
variable C11cubic equal (109.940112576682+108.284142918368+${C33all})/3.0
variable C11cubic equal (109.940112576682+108.284142918368+107.609832621049)/3.0
variable C12cubic equal (${C12all}+${C13all}+${C23all})/3.0
variable C12cubic equal (101.14707053988+${C13all}+${C23all})/3.0
variable C12cubic equal (101.14707053988+99.0960917785341+${C23all})/3.0
variable C12cubic equal (101.14707053988+99.0960917785341+100.063340498661)/3.0
variable C44cubic equal (${C44all}+${C55all}+${C66all})/3.0
variable C44cubic equal (35.0715185529761+${C55all}+${C66all})/3.0
variable C44cubic equal (35.0715185529761+37.6617501401816+${C66all})/3.0
variable C44cubic equal (35.0715185529761+37.6617501401816+35.0771618108615)/3.0

variable bulkmodulus equal (${C11cubic}+2*${C12cubic})/3.0
variable bulkmodulus equal (108.611362705366+2*${C12cubic})/3.0
variable bulkmodulus equal (108.611362705366+2*100.102167605692)/3.0
variable shearmodulus1 equal ${C44cubic}
variable shearmodulus1 equal 35.9368101680064
variable shearmodulus2 equal (${C11cubic}-${C12cubic})/2.0
variable shearmodulus2 equal (108.611362705366-${C12cubic})/2.0
variable shearmodulus2 equal (108.611362705366-100.102167605692)/2.0
variable poissonratio equal 1.0/(1.0+${C11cubic}/${C12cubic})
variable poissonratio equal 1.0/(1.0+108.611362705366/${C12cubic})
variable poissonratio equal 1.0/(1.0+108.611362705366/100.102167605692)

# For Stillinger-Weber silicon, the analytical results
# are known to be (E. R. Cowley, 1988):
#               C11 = 151.4 GPa
#               C12 = 76.4 GPa
#               C44 = 56.4 GPa

print "========================================="
=========================================
print "Components of the Elastic Constant Tensor"
Components of the Elastic Constant Tensor
print "========================================="
=========================================

print "Elastic Constant C11all=${C11all}" file BulkProp_finite.txt
Elastic Constant C11all=109.940112576682
print "Elastic Constant C22all = ${C22all} ${cunits}"
Elastic Constant C22all = 108.284142918368 GPa
print "Elastic Constant C33all = ${C33all} ${cunits}"
Elastic Constant C33all = 107.609832621049 GPa

print "Elastic Constant C12all=${C12all}" append BulkProp_finite.txt
Elastic Constant C12all=101.14707053988
print "Elastic Constant C13all = ${C13all} ${cunits}"
Elastic Constant C13all = 99.0960917785341 GPa
print "Elastic Constant C23all = ${C23all} ${cunits}"
Elastic Constant C23all = 100.063340498661 GPa

print "Elastic Constant C44all=${C44all}" append BulkProp_finite.txt
Elastic Constant C44all=35.0715185529761
print "Elastic Constant C55all = ${C55all} ${cunits}"
Elastic Constant C55all = 37.6617501401816 GPa
print "Elastic Constant C66all = ${C66all} ${cunits}"
Elastic Constant C66all = 35.0771618108615 GPa

print "Elastic Constant C14all = ${C14all} ${cunits}"
Elastic Constant C14all = 0.881833001039025 GPa
print "Elastic Constant C15all = ${C15all} ${cunits}"
Elastic Constant C15all = 0.550759987901176 GPa
print "Elastic Constant C16all = ${C16all} ${cunits}"
Elastic Constant C16all = -0.275104484791854 GPa

print "Elastic Constant C24all = ${C24all} ${cunits}"
Elastic Constant C24all = 1.16309330118722 GPa
print "Elastic Constant C25all = ${C25all} ${cunits}"
Elastic Constant C25all = 1.25258985298943 GPa
print "Elastic Constant C26all = ${C26all} ${cunits}"
Elastic Constant C26all = 0.735903410406195 GPa

print "Elastic Constant C34all = ${C34all} ${cunits}"
Elastic Constant C34all = 0.216603198259312 GPa
print "Elastic Constant C35all = ${C35all} ${cunits}"
Elastic Constant C35all = 1.74385460119901 GPa
print "Elastic Constant C36all = ${C36all} ${cunits}"
Elastic Constant C36all = -1.35765264769221 GPa

print "Elastic Constant C45all = ${C45all} ${cunits}"
Elastic Constant C45all = -0.362826085016517 GPa
print "Elastic Constant C46all = ${C46all} ${cunits}"
Elastic Constant C46all = -0.81926695259352 GPa
print "Elastic Constant C56all = ${C56all} ${cunits}"
Elastic Constant C56all = 0.719714521156588 GPa

print "========================================="
=========================================
print "Average properties for a cubic crystal"
Average properties for a cubic crystal
print "========================================="
=========================================

print "Bulk Modulus=${bulkmodulus}" append BulkProp_finite.txt
Bulk Modulus=102.93856597225
print "Shear Modulus 1=${shearmodulus1}" append BulkProp_finite.txt
Shear Modulus 1=35.9368101680064
print "Shear Modulus 2=${shearmodulus2}" append BulkProp_finite.txt
Shear Modulus 2=4.254597549837
print "Poisson Ratio=${poissonratio}" append BulkProp_finite.txt
Poisson Ratio=0.479615133031883
Total wall time: 0:01:00
