LAMMPS (30 Apr 2019)
OMP_NUM_THREADS environment is not set. Defaulting to 1 thread. (../comm.cpp:88)
  using 1 OpenMP thread(s) per MPI task
Lattice spacing in x,y,z = 4.30309 4.30309 4.30309
Created orthogonal box = (0 0 0) to (4.30309 4.30309 4.30309)
  1 by 1 by 1 MPI processor grid
Created 4 atoms
  create_atoms CPU = 0.0011797 secs
Replicating atoms ...
  orthogonal box = (0 0 0) to (30.1216 30.1216 30.1216)
  1 by 1 by 1 MPI processor grid
  1372 atoms
Finding 1-2 1-3 1-4 neighbors ...
  special bond factors lj:   0          0          0         
  special bond factors coul: 0          0          0         
  0 = max # of 1-2 neighbors
  0 = max # of 1-3 neighbors
  0 = max # of 1-4 neighbors
  1 = max # of special neighbors
  special bonds CPU = 0.000152866 secs
  replicate CPU = 0.000587117 secs
Neighbor list info ...
  update every 1 steps, delay 0 steps, check yes
  max neighbors/atom: 2000, page size: 100000
  master list distance cutoff = 7.5
  ghost atom cutoff = 7.5
  1 neighbor lists, perpetual/occasional/extra = 1 0 0
  (1) pair eam/fs, perpetual
      attributes: half, newton on
      pair build: half/nsq/newton
      stencil: none
      bin: none
Setting up Verlet run ...
  Unit style    : metal
  Current step  : 0
  Time step     : 0.001
Per MPI rank memory allocation (min/avg/max) = 6.069 | 6.069 | 6.069 Mbytes
Step Temp PotEng Press f_avp[1] f_avp[2] f_avp[3] f_avp[4] f_avp[5] f_avp[6] 
       0    1522.3329   -4500.1857   -100696.48            0            0            0            0            0            0 
     100    1479.7022   -4332.7864   -45392.472   -63324.214   -64085.156   -63482.256   -13.742636   -261.08073    7.7842935 
     200    1507.8196   -4289.2079   -32646.662   -37040.375   -38092.574   -37362.915    25.945178    285.25803    1123.5323 
     300    1462.1764   -4274.2196   -27585.701    -28740.75   -30240.825   -28470.605    656.23566    1202.8616    930.08485 
     400    1462.9849   -4269.0209   -25665.118   -25894.205    -25883.12   -25889.134   -157.79886    153.64344    458.13851 
     500    1568.0979   -4257.4483   -21525.069   -23034.348    -22404.24   -23837.966    346.66018    427.83853   -615.62358 
     600    1592.4305   -4242.4226     -17194.1   -19096.281   -19377.948   -19753.598    6.0138826    549.37863   -502.41379 
     700    1531.2254   -4241.7028   -16826.054     -17031.5   -18073.224   -17606.273    190.71709    381.99287   -629.36588 
     800    1542.8834   -4236.2197   -15405.176   -15432.015   -18014.061   -16227.886    329.78067    376.54061    647.41584 
     900    1502.2674   -4236.2481   -15720.754   -14024.568   -17253.753   -16529.571    436.58644    125.33747   -176.63726 
    1000    1445.3056   -4227.1811   -13869.879   -13611.348    -15435.38   -14643.645    208.31672   -240.04164    343.06634 
Loop time of 3.18672 on 1 procs for 1000 steps with 1372 atoms

Performance: 27.113 ns/day, 0.885 hours/ns, 313.802 timesteps/s
99.6% CPU use with 1 MPI tasks x 1 OpenMP threads

MPI task timing breakdown:
Section |  min time  |  avg time  |  max time  |%varavg| %total
---------------------------------------------------------------
Pair    | 2.2473     | 2.2473     | 2.2473     |   0.0 | 70.52
Bond    | 0.00010553 | 0.00010553 | 0.00010553 |   0.0 |  0.00
Neigh   | 0.85704    | 0.85704    | 0.85704    |   0.0 | 26.89
Comm    | 0.014545   | 0.014545   | 0.014545   |   0.0 |  0.46
Output  | 0.00020037 | 0.00020037 | 0.00020037 |   0.0 |  0.01
Modify  | 0.061822   | 0.061822   | 0.061822   |   0.0 |  1.94
Other   |            | 0.005679   |            |       |  0.18

Nlocal:    1372 ave 1372 max 1372 min
Histogram: 1 0 0 0 0 0 0 0 0 0
Nghost:    3256 ave 3256 max 3256 min
Histogram: 1 0 0 0 0 0 0 0 0 0
Neighs:    59169 ave 59169 max 59169 min
Histogram: 1 0 0 0 0 0 0 0 0 0

Total # of neighbors = 59169
Ave neighs/atom = 43.1261
Ave special neighs/atom = 0
Neighbor list builds = 39
Dangerous builds = 0
1
WARNING: New thermo_style command, previous thermo_modify settings will be lost (../output.cpp:705)
Setting up Verlet run ...
  Unit style    : metal
  Current step  : 0
  Time step     : 0.001
Per MPI rank memory allocation (min/avg/max) = 6.069 | 6.069 | 6.069 Mbytes
Step Temp PotEng Press f_avp[1] f_avp[2] f_avp[3] f_avp[4] f_avp[5] f_avp[6] 
       0    1445.3056   -4227.1811   -13869.879            0            0            0            0            0            0 
     100    1497.9959   -4223.5052   -12326.394   -12243.702   -12956.992   -12958.114     1122.005    1248.2069    123.31874 
     200    1507.1049   -4215.0145    -9989.003   -10675.974   -12494.467   -10260.295    1918.3566    920.38767    44.505596 
     300     1463.743   -4221.8686   -11680.462    -10607.75   -10745.991   -8878.1416    2304.5752    602.54649    394.44398 
Loop time of 1.02222 on 1 procs for 300 steps with 1372 atoms

Performance: 25.357 ns/day, 0.946 hours/ns, 293.480 timesteps/s
99.6% CPU use with 1 MPI tasks x 1 OpenMP threads

MPI task timing breakdown:
Section |  min time  |  avg time  |  max time  |%varavg| %total
---------------------------------------------------------------
Pair    | 0.69046    | 0.69046    | 0.69046    |   0.0 | 67.54
Bond    | 3.1889e-05 | 3.1889e-05 | 3.1889e-05 |   0.0 |  0.00
Neigh   | 0.30722    | 0.30722    | 0.30722    |   0.0 | 30.05
Comm    | 0.0042596  | 0.0042596  | 0.0042596  |   0.0 |  0.42
Output  | 5.8458e-05 | 5.8458e-05 | 5.8458e-05 |   0.0 |  0.01
Modify  | 0.018508   | 0.018508   | 0.018508   |   0.0 |  1.81
Other   |            | 0.001684   |            |       |  0.16

Nlocal:    1372 ave 1372 max 1372 min
Histogram: 1 0 0 0 0 0 0 0 0 0
Nghost:    3255 ave 3255 max 3255 min
Histogram: 1 0 0 0 0 0 0 0 0 0
Neighs:    59289 ave 59289 max 59289 min
Histogram: 1 0 0 0 0 0 0 0 0 0

Total # of neighbors = 59289
Ave neighs/atom = 43.2136
Ave special neighs/atom = 0
Neighbor list builds = 11
Dangerous builds = 0
System init for write_restart ...
OMP_NUM_THREADS environment is not set. Defaulting to 1 thread. (../comm.cpp:88)
  using 1 OpenMP thread(s) per MPI task
Reading restart file ...
  restart file = 30 Apr 2019, LAMMPS = 30 Apr 2019
  restoring atom style full from restart
  orthogonal box = (0 0 0) to (30.1216 30.1216 30.1216)
  1 by 1 by 1 MPI processor grid
  pair style eam/fs stores no restart info
  1372 atoms
Finding 1-2 1-3 1-4 neighbors ...
  special bond factors lj:   0          0          0         
  special bond factors coul: 0          0          0         
  0 = max # of 1-2 neighbors
  0 = max # of 1-3 neighbors
  0 = max # of 1-4 neighbors
  1 = max # of special neighbors
  special bonds CPU = 0.000131005 secs
  read_restart CPU = 0.000611728 secs
Changing box ...
  triclinic box = (0 0 0) to (30.1216 30.1216 30.1216) with tilt (0 0 0)
Changing box ...
  triclinic box = (0 0 0) to (29.5192 30.1216 30.1216) with tilt (0 0 0)
  triclinic box = (0 0 0) to (29.5192 30.1216 30.1216) with tilt (0 0 0)
  triclinic box = (0 0 0) to (29.5192 30.1216 30.1216) with tilt (0 0 0)
Neighbor list info ...
  update every 1 steps, delay 0 steps, check yes
  max neighbors/atom: 2000, page size: 100000
  master list distance cutoff = 7.5
  ghost atom cutoff = 7.5
  1 neighbor lists, perpetual/occasional/extra = 1 0 0
  (1) pair eam/fs, perpetual
      attributes: half, newton on
      pair build: half/nsq/newton
      stencil: none
      bin: none
Setting up Verlet run ...
  Unit style    : metal
  Current step  : 0
  Time step     : 0.001
Per MPI rank memory allocation (min/avg/max) = 6.051 | 6.051 | 6.051 Mbytes
Step Temp PotEng Press f_avp[1] f_avp[2] f_avp[3] f_avp[4] f_avp[5] f_avp[6] 
       0     1463.743   -4227.5496   -1668.8085            0            0            0            0            0            0 
     100    1497.9435   -4205.8001    4484.3932     3705.905    2405.2165    1365.6033    2286.9172    1080.0982    329.17755 
     200    1500.8546   -4181.2479    11848.646    10058.739    6288.5241    9368.7612    1808.6463    599.61937    1711.4251 
     300    1454.4627   -4177.6643    13799.552    14397.657    11940.147    14876.293    1902.5746    449.61782    1293.9197 
     400    1468.1592   -4182.6525    11828.329    14805.158    13494.409    12223.752    255.14292    348.07224    700.06158 
     500    1543.4294   -4188.2749    10358.027    12544.105    12485.698    8382.7112    764.16057    68.071618     305.7245 
     600    1572.1795   -4185.1944     10574.27    11139.704    10810.454     7615.476    729.54269    524.04117   -161.64727 
     700    1516.4269    -4196.442    7139.9349    8205.2546    8715.9885     6696.465    322.93429    467.82131    -858.1885 
     800    1539.7938   -4197.3282    7617.2602    7324.2737    6232.4568    6866.5677    1032.3494    223.22265   -237.88894 
     900    1514.9174   -4204.7694    6330.9064     7897.196     7039.834    7585.8645    1099.6578    240.69227    432.39368 
    1000    1451.7447   -4195.6978    6477.3016     8051.843    7258.0719    5809.3526    596.76618    327.28415    1164.4559 
Loop time of 3.58301 on 1 procs for 1000 steps with 1372 atoms

Performance: 24.114 ns/day, 0.995 hours/ns, 279.095 timesteps/s
99.6% CPU use with 1 MPI tasks x 1 OpenMP threads

MPI task timing breakdown:
Section |  min time  |  avg time  |  max time  |%varavg| %total
---------------------------------------------------------------
Pair    | 2.3666     | 2.3666     | 2.3666     |   0.0 | 66.05
Bond    | 9.2729e-05 | 9.2729e-05 | 9.2729e-05 |   0.0 |  0.00
Neigh   | 1.1329     | 1.1329     | 1.1329     |   0.0 | 31.62
Comm    | 0.015278   | 0.015278   | 0.015278   |   0.0 |  0.43
Output  | 0.00021051 | 0.00021051 | 0.00021051 |   0.0 |  0.01
Modify  | 0.06219    | 0.06219    | 0.06219    |   0.0 |  1.74
Other   |            | 0.005677   |            |       |  0.16

Nlocal:    1372 ave 1372 max 1372 min
Histogram: 1 0 0 0 0 0 0 0 0 0
Nghost:    3291 ave 3291 max 3291 min
Histogram: 1 0 0 0 0 0 0 0 0 0
Neighs:    61045 ave 61045 max 61045 min
Histogram: 1 0 0 0 0 0 0 0 0 0

Total # of neighbors = 61045
Ave neighs/atom = 44.4934
Ave special neighs/atom = 0
Neighbor list builds = 39
Dangerous builds = 0
WARNING: New thermo_style command, previous thermo_modify settings will be lost (../output.cpp:705)
Setting up Verlet run ...
  Unit style    : metal
  Current step  : 0
  Time step     : 0.001
Per MPI rank memory allocation (min/avg/max) = 6.051 | 6.051 | 6.051 Mbytes
Step Temp PotEng Press f_avp[1] f_avp[2] f_avp[3] f_avp[4] f_avp[5] f_avp[6] 
       0    1451.7447   -4195.6978    6477.3016            0            0            0            0            0            0 
     100    1507.0876    -4188.082    8837.7871    6790.7085    7959.4588    8414.9756    1374.7476   -107.84613     2275.018 
     200    1513.0838   -4192.6227    10275.419    10040.279    8695.0934     7890.303    1361.0415    1165.0518    810.00039 
     300    1467.9534    -4190.688    10004.333    10308.499    10932.358    9015.3588    972.34923    139.26524     847.5932 
Loop time of 1.05609 on 1 procs for 300 steps with 1372 atoms

Performance: 24.543 ns/day, 0.978 hours/ns, 284.066 timesteps/s
99.6% CPU use with 1 MPI tasks x 1 OpenMP threads

MPI task timing breakdown:
Section |  min time  |  avg time  |  max time  |%varavg| %total
---------------------------------------------------------------
Pair    | 0.70983    | 0.70983    | 0.70983    |   0.0 | 67.21
Bond    | 2.8103e-05 | 2.8103e-05 | 2.8103e-05 |   0.0 |  0.00
Neigh   | 0.32159    | 0.32159    | 0.32159    |   0.0 | 30.45
Comm    | 0.0045346  | 0.0045346  | 0.0045346  |   0.0 |  0.43
Output  | 5.8496e-05 | 5.8496e-05 | 5.8496e-05 |   0.0 |  0.01
Modify  | 0.018311   | 0.018311   | 0.018311   |   0.0 |  1.73
Other   |            | 0.001738   |            |       |  0.16

Nlocal:    1372 ave 1372 max 1372 min
Histogram: 1 0 0 0 0 0 0 0 0 0
Nghost:    3343 ave 3343 max 3343 min
Histogram: 1 0 0 0 0 0 0 0 0 0
Neighs:    61249 ave 61249 max 61249 min
Histogram: 1 0 0 0 0 0 0 0 0 0

Total # of neighbors = 61249
Ave neighs/atom = 44.6421
Ave special neighs/atom = 0
Neighbor list builds = 11
Dangerous builds = 0
OMP_NUM_THREADS environment is not set. Defaulting to 1 thread. (../comm.cpp:88)
  using 1 OpenMP thread(s) per MPI task
Reading restart file ...
  restart file = 30 Apr 2019, LAMMPS = 30 Apr 2019
  restoring atom style full from restart
  orthogonal box = (0 0 0) to (30.1216 30.1216 30.1216)
  1 by 1 by 1 MPI processor grid
  pair style eam/fs stores no restart info
  1372 atoms
Finding 1-2 1-3 1-4 neighbors ...
  special bond factors lj:   0          0          0         
  special bond factors coul: 0          0          0         
  0 = max # of 1-2 neighbors
  0 = max # of 1-3 neighbors
  0 = max # of 1-4 neighbors
  1 = max # of special neighbors
  special bonds CPU = 0.000126697 secs
  read_restart CPU = 0.000651562 secs
Changing box ...
  triclinic box = (0 0 0) to (30.1216 30.1216 30.1216) with tilt (0 0 0)
Changing box ...
  triclinic box = (0 0 0) to (30.7241 30.1216 30.1216) with tilt (0 0 0)
  triclinic box = (0 0 0) to (30.7241 30.1216 30.1216) with tilt (0 0 0)
  triclinic box = (0 0 0) to (30.7241 30.1216 30.1216) with tilt (0 0 0)
Neighbor list info ...
  update every 1 steps, delay 0 steps, check yes
  max neighbors/atom: 2000, page size: 100000
  master list distance cutoff = 7.5
  ghost atom cutoff = 7.5
  1 neighbor lists, perpetual/occasional/extra = 1 0 0
  (1) pair eam/fs, perpetual
      attributes: half, newton on
      pair build: half/nsq/newton
      stencil: none
      bin: none
Setting up Verlet run ...
  Unit style    : metal
  Current step  : 0
  Time step     : 0.001
Per MPI rank memory allocation (min/avg/max) = 6.051 | 6.051 | 6.051 Mbytes
Step Temp PotEng Press f_avp[1] f_avp[2] f_avp[3] f_avp[4] f_avp[5] f_avp[6] 
       0     1463.743   -4212.2158   -20154.045            0            0            0            0            0            0 
     100    1499.2024   -4178.1183   -10085.942   -15822.668   -11996.594   -12688.838     2147.833    1103.7397    302.65686 
     200    1501.1971   -4153.7374    -1794.908   -6127.7254   -6690.1475   -3501.0501     1618.093    610.63696    1589.3766 
     300    1455.1219   -4148.2858    1681.6582    705.15897   -207.27371    2826.4967    1863.9145    487.41683    1169.6838 
     400    1471.7001   -4153.1703    148.39157    2388.8868    1804.5342    826.25899    333.28549    275.87216    784.67151 
     500    1543.7489   -4158.6869   -2055.2954    170.34389    620.65233   -2962.6265     894.9202    163.30815    434.08898 
     600    1579.4263   -4156.2246   -1499.6242   -1081.5448   -1002.4899   -4518.9978    985.25276      729.291     47.27272 
     700    1517.2043   -4161.8294   -4023.0031    -3715.061   -2425.8192   -5129.3363    208.89834    1088.7207   -1222.0141 
     800    1544.3411   -4164.1563   -3827.8014   -4011.3529    -4585.267   -4713.6238    831.32718    441.51926   -845.60923 
     900     1519.006    -4169.943   -4278.1272     -2981.42   -4038.1213   -3560.2276    799.37031    233.12464   -48.647221 
    1000    1456.3147   -4163.3027   -4790.8155   -3296.9152   -3720.6096   -5143.2225    387.44379     627.2728    326.96681 
Loop time of 3.40884 on 1 procs for 1000 steps with 1372 atoms

Performance: 25.346 ns/day, 0.947 hours/ns, 293.355 timesteps/s
99.7% CPU use with 1 MPI tasks x 1 OpenMP threads

MPI task timing breakdown:
Section |  min time  |  avg time  |  max time  |%varavg| %total
---------------------------------------------------------------
Pair    | 2.2464     | 2.2464     | 2.2464     |   0.0 | 65.90
Bond    | 8.1324e-05 | 8.1324e-05 | 8.1324e-05 |   0.0 |  0.00
Neigh   | 1.081      | 1.081      | 1.081      |   0.0 | 31.71
Comm    | 0.01493    | 0.01493    | 0.01493    |   0.0 |  0.44
Output  | 0.00020221 | 0.00020221 | 0.00020221 |   0.0 |  0.01
Modify  | 0.060463   | 0.060463   | 0.060463   |   0.0 |  1.77
Other   |            | 0.005698   |            |       |  0.17

Nlocal:    1372 ave 1372 max 1372 min
Histogram: 1 0 0 0 0 0 0 0 0 0
Nghost:    3268 ave 3268 max 3268 min
Histogram: 1 0 0 0 0 0 0 0 0 0
Neighs:    58651 ave 58651 max 58651 min
Histogram: 1 0 0 0 0 0 0 0 0 0

Total # of neighbors = 58651
Ave neighs/atom = 42.7485
Ave special neighs/atom = 0
Neighbor list builds = 38
Dangerous builds = 0
WARNING: New thermo_style command, previous thermo_modify settings will be lost (../output.cpp:705)
Setting up Verlet run ...
  Unit style    : metal
  Current step  : 0
  Time step     : 0.001
Per MPI rank memory allocation (min/avg/max) = 6.051 | 6.051 | 6.051 Mbytes
Step Temp PotEng Press f_avp[1] f_avp[2] f_avp[3] f_avp[4] f_avp[5] f_avp[6] 
       0    1456.3147   -4163.3027   -4790.8155            0            0            0            0            0            0 
     100    1507.2461   -4152.9784   -1815.6845   -3410.3338   -2936.3234   -2628.8821    1330.2718    657.07301    1914.3374 
     200    1511.9337   -4158.6412   -147.55381   -970.33187   -1769.1692   -2406.9486    1016.3175     1491.964    626.93311 
     300    1476.8326    -4165.287   -879.85874   -856.42401    456.51681    -272.7118    266.28763    770.49948    618.84841 
Loop time of 1.01558 on 1 procs for 300 steps with 1372 atoms

Performance: 25.522 ns/day, 0.940 hours/ns, 295.399 timesteps/s
99.6% CPU use with 1 MPI tasks x 1 OpenMP threads

MPI task timing breakdown:
Section |  min time  |  avg time  |  max time  |%varavg| %total
---------------------------------------------------------------
Pair    | 0.67631    | 0.67631    | 0.67631    |   0.0 | 66.59
Bond    | 2.6037e-05 | 2.6037e-05 | 2.6037e-05 |   0.0 |  0.00
Neigh   | 0.31501    | 0.31501    | 0.31501    |   0.0 | 31.02
Comm    | 0.00442    | 0.00442    | 0.00442    |   0.0 |  0.44
Output  | 5.8806e-05 | 5.8806e-05 | 5.8806e-05 |   0.0 |  0.01
Modify  | 0.018049   | 0.018049   | 0.018049   |   0.0 |  1.78
Other   |            | 0.001703   |            |       |  0.17

Nlocal:    1372 ave 1372 max 1372 min
Histogram: 1 0 0 0 0 0 0 0 0 0
Nghost:    3293 ave 3293 max 3293 min
Histogram: 1 0 0 0 0 0 0 0 0 0
Neighs:    58910 ave 58910 max 58910 min
Histogram: 1 0 0 0 0 0 0 0 0 0

Total # of neighbors = 58910
Ave neighs/atom = 42.9373
Ave special neighs/atom = 0
Neighbor list builds = 11
Dangerous builds = 0
OMP_NUM_THREADS environment is not set. Defaulting to 1 thread. (../comm.cpp:88)
  using 1 OpenMP thread(s) per MPI task
Reading restart file ...
  restart file = 30 Apr 2019, LAMMPS = 30 Apr 2019
  restoring atom style full from restart
  orthogonal box = (0 0 0) to (30.1216 30.1216 30.1216)
  1 by 1 by 1 MPI processor grid
  pair style eam/fs stores no restart info
  1372 atoms
Finding 1-2 1-3 1-4 neighbors ...
  special bond factors lj:   0          0          0         
  special bond factors coul: 0          0          0         
  0 = max # of 1-2 neighbors
  0 = max # of 1-3 neighbors
  0 = max # of 1-4 neighbors
  1 = max # of special neighbors
  special bonds CPU = 0.000130565 secs
  read_restart CPU = 0.000711475 secs
Changing box ...
  triclinic box = (0 0 0) to (30.1216 30.1216 30.1216) with tilt (0 0 0)
Changing box ...
  triclinic box = (0 0 0) to (30.1216 29.5192 30.1216) with tilt (0 0 0)
  triclinic box = (0 0 0) to (30.1216 29.5192 30.1216) with tilt (0 0 0)
Neighbor list info ...
  update every 1 steps, delay 0 steps, check yes
  max neighbors/atom: 2000, page size: 100000
  master list distance cutoff = 7.5
  ghost atom cutoff = 7.5
  1 neighbor lists, perpetual/occasional/extra = 1 0 0
  (1) pair eam/fs, perpetual
      attributes: half, newton on
      pair build: half/nsq/newton
      stencil: none
      bin: none
Setting up Verlet run ...
  Unit style    : metal
  Current step  : 0
  Time step     : 0.001
Per MPI rank memory allocation (min/avg/max) = 6.028 | 6.028 | 6.028 Mbytes
Step Temp PotEng Press f_avp[1] f_avp[2] f_avp[3] f_avp[4] f_avp[5] f_avp[6] 
       0     1463.743   -4227.2176   -1659.7017            0            0            0            0            0            0 
     100    1498.4637   -4205.3588    4573.7262     1002.054    5120.4441    1345.3163     2422.187      1024.63    385.11932 
     200    1500.9874   -4182.0111    11749.036    8416.1699    7852.9564    9350.6899    1794.8664    470.53308    1720.6749 
     300    1454.5231    -4177.995    13834.645    13559.482    12796.235    14938.282     1952.511    419.94767    1229.0478 
     400    1469.3202   -4183.1401    11994.947     14561.34    14021.761    12213.134    270.39771    471.91972    581.59127 
     500    1543.6373    -4188.708    10121.035    12347.999    12802.471    8189.9823    826.40558    223.28239    345.81225 
     600    1574.4008    -4185.982    10426.358    10776.025    10972.659    7404.7734    699.91934    613.92304   -206.17469 
     700    1516.5975   -4195.6222    7227.8318    7617.0804    9548.9319    6555.6796     193.6573    705.69532   -967.81544 
     800    1541.5738   -4197.2593    7561.9512    7136.4008    6808.8288    6621.0924    1105.0415    392.50597   -415.51824 
     900    1518.5049   -4204.8699     6523.633    7810.6817    7800.6033    7335.6539    1088.9096     182.1699    138.93377 
    1000    1451.0957   -4195.6998    6679.6182    8076.0045    7946.9894    5628.0074    721.70132    285.17001    654.01821 
Loop time of 3.5529 on 1 procs for 1000 steps with 1372 atoms

Performance: 24.318 ns/day, 0.987 hours/ns, 281.460 timesteps/s
99.7% CPU use with 1 MPI tasks x 1 OpenMP threads

MPI task timing breakdown:
Section |  min time  |  avg time  |  max time  |%varavg| %total
---------------------------------------------------------------
Pair    | 2.3543     | 2.3543     | 2.3543     |   0.0 | 66.26
Bond    | 8.3674e-05 | 8.3674e-05 | 8.3674e-05 |   0.0 |  0.00
Neigh   | 1.1168     | 1.1168     | 1.1168     |   0.0 | 31.43
Comm    | 0.015009   | 0.015009   | 0.015009   |   0.0 |  0.42
Output  | 0.00021012 | 0.00021012 | 0.00021012 |   0.0 |  0.01
Modify  | 0.060733   | 0.060733   | 0.060733   |   0.0 |  1.71
Other   |            | 0.005707   |            |       |  0.16

Nlocal:    1372 ave 1372 max 1372 min
Histogram: 1 0 0 0 0 0 0 0 0 0
Nghost:    3298 ave 3298 max 3298 min
Histogram: 1 0 0 0 0 0 0 0 0 0
Neighs:    61084 ave 61084 max 61084 min
Histogram: 1 0 0 0 0 0 0 0 0 0

Total # of neighbors = 61084
Ave neighs/atom = 44.5219
Ave special neighs/atom = 0
Neighbor list builds = 39
Dangerous builds = 0
WARNING: New thermo_style command, previous thermo_modify settings will be lost (../output.cpp:705)
Setting up Verlet run ...
  Unit style    : metal
  Current step  : 0
  Time step     : 0.001
Per MPI rank memory allocation (min/avg/max) = 6.053 | 6.053 | 6.053 Mbytes
Step Temp PotEng Press f_avp[1] f_avp[2] f_avp[3] f_avp[4] f_avp[5] f_avp[6] 
       0    1451.0957   -4195.6998    6679.6182            0            0            0            0            0            0 
     100    1510.4142   -4186.2866    9111.9758    6905.4161    8598.9057    8738.0752    1460.2787    204.16194    2204.0339 
     200    1509.1922    -4191.946    10692.616    10095.473    8717.6159    8269.9708    1536.4652    1245.5077    817.96954 
     300    1474.1915   -4192.7012    9926.0863    10109.973    11081.306    9982.0479    898.87646    146.56347     778.2555 
Loop time of 1.05828 on 1 procs for 300 steps with 1372 atoms

Performance: 24.493 ns/day, 0.980 hours/ns, 283.479 timesteps/s
99.7% CPU use with 1 MPI tasks x 1 OpenMP threads

MPI task timing breakdown:
Section |  min time  |  avg time  |  max time  |%varavg| %total
---------------------------------------------------------------
Pair    | 0.71067    | 0.71067    | 0.71067    |   0.0 | 67.15
Bond    | 2.4871e-05 | 2.4871e-05 | 2.4871e-05 |   0.0 |  0.00
Neigh   | 0.32319    | 0.32319    | 0.32319    |   0.0 | 30.54
Comm    | 0.0044317  | 0.0044317  | 0.0044317  |   0.0 |  0.42
Output  | 5.8144e-05 | 5.8144e-05 | 5.8144e-05 |   0.0 |  0.01
Modify  | 0.018197   | 0.018197   | 0.018197   |   0.0 |  1.72
Other   |            | 0.001704   |            |       |  0.16

Nlocal:    1372 ave 1372 max 1372 min
Histogram: 1 0 0 0 0 0 0 0 0 0
Nghost:    3332 ave 3332 max 3332 min
Histogram: 1 0 0 0 0 0 0 0 0 0
Neighs:    61272 ave 61272 max 61272 min
Histogram: 1 0 0 0 0 0 0 0 0 0

Total # of neighbors = 61272
Ave neighs/atom = 44.6589
Ave special neighs/atom = 0
Neighbor list builds = 11
Dangerous builds = 0
OMP_NUM_THREADS environment is not set. Defaulting to 1 thread. (../comm.cpp:88)
  using 1 OpenMP thread(s) per MPI task
Reading restart file ...
  restart file = 30 Apr 2019, LAMMPS = 30 Apr 2019
  restoring atom style full from restart
  orthogonal box = (0 0 0) to (30.1216 30.1216 30.1216)
  1 by 1 by 1 MPI processor grid
  pair style eam/fs stores no restart info
  1372 atoms
Finding 1-2 1-3 1-4 neighbors ...
  special bond factors lj:   0          0          0         
  special bond factors coul: 0          0          0         
  0 = max # of 1-2 neighbors
  0 = max # of 1-3 neighbors
  0 = max # of 1-4 neighbors
  1 = max # of special neighbors
  special bonds CPU = 0.000122319 secs
  read_restart CPU = 0.000588056 secs
Changing box ...
  triclinic box = (0 0 0) to (30.1216 30.1216 30.1216) with tilt (0 0 0)
Changing box ...
  triclinic box = (0 0 0) to (30.1216 30.7241 30.1216) with tilt (0 0 0)
  triclinic box = (0 0 0) to (30.1216 30.7241 30.1216) with tilt (0 0 0)
Neighbor list info ...
  update every 1 steps, delay 0 steps, check yes
  max neighbors/atom: 2000, page size: 100000
  master list distance cutoff = 7.5
  ghost atom cutoff = 7.5
  1 neighbor lists, perpetual/occasional/extra = 1 0 0
  (1) pair eam/fs, perpetual
      attributes: half, newton on
      pair build: half/nsq/newton
      stencil: none
      bin: none
Setting up Verlet run ...
  Unit style    : metal
  Current step  : 0
  Time step     : 0.001
Per MPI rank memory allocation (min/avg/max) = 6.051 | 6.051 | 6.051 Mbytes
Step Temp PotEng Press f_avp[1] f_avp[2] f_avp[3] f_avp[4] f_avp[5] f_avp[6] 
       0     1463.743   -4212.5485   -20179.074            0            0            0            0            0            0 
     100    1498.5806   -4178.6239    -10130.27   -13342.169   -14439.886   -12686.671    2039.3922    1148.9435    254.20658 
     200    1501.2719   -4153.0332   -1666.3149   -4571.0243   -8101.9537   -3502.7491    1611.3435    743.96418    1547.4501 
     300    1455.0153   -4147.8719    1640.0881     1403.468   -924.73009    2724.7964     1796.358    518.19131    1248.0714 
     400    1470.8166   -4152.4042    88.707557     2645.583    1370.0674    845.17835    332.97507    201.73479    886.32953 
     500    1543.6837   -4158.2623   -1772.7741    383.23347    438.45831   -2717.6685    835.04531    74.048876    388.34707 
     600    1577.8196   -4155.6189   -1503.7982   -810.72726   -1122.5373   -4308.3775    929.69525    665.68206    133.14198 
     700     1518.591   -4162.3375   -4199.1084   -3010.7733   -3336.8703   -5006.3232      221.694    801.84963   -1089.4571 
     800    1542.9604   -4163.9514   -3844.6001   -3771.8586   -5276.2033   -4628.4154    706.37489    361.44152   -813.04573 
     900     1515.579   -4169.9865   -4236.9266   -2716.2644    -4581.271   -3278.8997    784.39674    283.89441    30.430235 
    1000    1457.2893   -4163.6932   -4729.2794   -2962.6299   -4128.4068   -5054.8931    320.95957    643.26296    612.25573 
Loop time of 3.43145 on 1 procs for 1000 steps with 1372 atoms

Performance: 25.179 ns/day, 0.953 hours/ns, 291.422 timesteps/s
99.7% CPU use with 1 MPI tasks x 1 OpenMP threads

MPI task timing breakdown:
Section |  min time  |  avg time  |  max time  |%varavg| %total
---------------------------------------------------------------
Pair    | 2.2437     | 2.2437     | 2.2437     |   0.0 | 65.39
Bond    | 8.2802e-05 | 8.2802e-05 | 8.2802e-05 |   0.0 |  0.00
Neigh   | 1.1062     | 1.1062     | 1.1062     |   0.0 | 32.24
Comm    | 0.014905   | 0.014905   | 0.014905   |   0.0 |  0.43
Output  | 0.00020071 | 0.00020071 | 0.00020071 |   0.0 |  0.01
Modify  | 0.060606   | 0.060606   | 0.060606   |   0.0 |  1.77
Other   |            | 0.005774   |            |       |  0.17

Nlocal:    1372 ave 1372 max 1372 min
Histogram: 1 0 0 0 0 0 0 0 0 0
Nghost:    3250 ave 3250 max 3250 min
Histogram: 1 0 0 0 0 0 0 0 0 0
Neighs:    58612 ave 58612 max 58612 min
Histogram: 1 0 0 0 0 0 0 0 0 0

Total # of neighbors = 58612
Ave neighs/atom = 42.7201
Ave special neighs/atom = 0
Neighbor list builds = 39
Dangerous builds = 0
WARNING: New thermo_style command, previous thermo_modify settings will be lost (../output.cpp:705)
Setting up Verlet run ...
  Unit style    : metal
  Current step  : 0
  Time step     : 0.001
Per MPI rank memory allocation (min/avg/max) = 6.051 | 6.051 | 6.051 Mbytes
Step Temp PotEng Press f_avp[1] f_avp[2] f_avp[3] f_avp[4] f_avp[5] f_avp[6] 
       0    1457.2893   -4163.6932   -4729.2794            0            0            0            0            0            0 
     100     1505.992   -4154.5824   -1907.3881   -3257.3914   -3428.0922   -2723.6125    1129.2074    337.62614     1922.715 
     200     1512.422   -4159.3027   -403.63346   -818.84821    -1945.232   -2536.5008    900.20819    1313.8012    759.48508 
     300    1471.6091   -4163.6097   -1006.6096   -518.90928     216.4728   -931.65502    272.17336    671.69977    886.60298 
Loop time of 1.01748 on 1 procs for 300 steps with 1372 atoms

Performance: 25.475 ns/day, 0.942 hours/ns, 294.847 timesteps/s
99.6% CPU use with 1 MPI tasks x 1 OpenMP threads

MPI task timing breakdown:
Section |  min time  |  avg time  |  max time  |%varavg| %total
---------------------------------------------------------------
Pair    | 0.67801    | 0.67801    | 0.67801    |   0.0 | 66.64
Bond    | 2.5609e-05 | 2.5609e-05 | 2.5609e-05 |   0.0 |  0.00
Neigh   | 0.31523    | 0.31523    | 0.31523    |   0.0 | 30.98
Comm    | 0.0043612  | 0.0043612  | 0.0043612  |   0.0 |  0.43
Output  | 5.7442e-05 | 5.7442e-05 | 5.7442e-05 |   0.0 |  0.01
Modify  | 0.018065   | 0.018065   | 0.018065   |   0.0 |  1.78
Other   |            | 0.001728   |            |       |  0.17

Nlocal:    1372 ave 1372 max 1372 min
Histogram: 1 0 0 0 0 0 0 0 0 0
Nghost:    3287 ave 3287 max 3287 min
Histogram: 1 0 0 0 0 0 0 0 0 0
Neighs:    58802 ave 58802 max 58802 min
Histogram: 1 0 0 0 0 0 0 0 0 0

Total # of neighbors = 58802
Ave neighs/atom = 42.8586
Ave special neighs/atom = 0
Neighbor list builds = 11
Dangerous builds = 0
OMP_NUM_THREADS environment is not set. Defaulting to 1 thread. (../comm.cpp:88)
  using 1 OpenMP thread(s) per MPI task
Reading restart file ...
  restart file = 30 Apr 2019, LAMMPS = 30 Apr 2019
  restoring atom style full from restart
  orthogonal box = (0 0 0) to (30.1216 30.1216 30.1216)
  1 by 1 by 1 MPI processor grid
  pair style eam/fs stores no restart info
  1372 atoms
Finding 1-2 1-3 1-4 neighbors ...
  special bond factors lj:   0          0          0         
  special bond factors coul: 0          0          0         
  0 = max # of 1-2 neighbors
  0 = max # of 1-3 neighbors
  0 = max # of 1-4 neighbors
  1 = max # of special neighbors
  special bonds CPU = 0.000129277 secs
  read_restart CPU = 0.000728938 secs
Changing box ...
  triclinic box = (0 0 0) to (30.1216 30.1216 30.1216) with tilt (0 0 0)
Changing box ...
  triclinic box = (0 0 0) to (30.1216 30.1216 29.5192) with tilt (0 0 0)
Neighbor list info ...
  update every 1 steps, delay 0 steps, check yes
  max neighbors/atom: 2000, page size: 100000
  master list distance cutoff = 7.5
  ghost atom cutoff = 7.5
  1 neighbor lists, perpetual/occasional/extra = 1 0 0
  (1) pair eam/fs, perpetual
      attributes: half, newton on
      pair build: half/nsq/newton
      stencil: none
      bin: none
Setting up Verlet run ...
  Unit style    : metal
  Current step  : 0
  Time step     : 0.001
Per MPI rank memory allocation (min/avg/max) = 6.052 | 6.052 | 6.052 Mbytes
Step Temp PotEng Press f_avp[1] f_avp[2] f_avp[3] f_avp[4] f_avp[5] f_avp[6] 
       0     1463.743    -4226.796   -1514.2963            0            0            0            0            0            0 
     100    1496.5648   -4205.8237    4493.9159    820.15052    2266.7389    4313.2867    2283.7877     1104.148    309.90517 
     200    1501.4051   -4181.6877    11677.847    8345.5274    6155.8147    10935.219    1726.3361    698.90091    1708.0279 
     300    1454.1196   -4177.5845    13757.415    13460.654    11819.814    15820.097    1887.0367     533.9647      1220.43 
     400    1468.5165   -4183.3544    11952.758    14423.126    13496.968    12899.538    209.74342    445.18662    662.69132 
     500    1543.5848   -4189.0186    10124.077     12052.62    12151.781    8766.9027    694.63749    181.07947    256.00152 
     600    1573.9543   -4186.1571    10420.784    10663.938    10307.399    7914.6744    688.74155    568.19386   -206.05386 
     700    1515.3251   -4195.5417    7403.1476     7919.701    8682.5911    7153.8127    127.74463    692.10283   -963.60074 
     800    1539.6455   -4197.1176     7731.251    7152.4974    6513.8035     7105.061    860.69579    414.38588   -422.27343 
     900    1513.2704   -4203.5764    6647.1316    7638.7337    7302.5388    7935.9123    977.45161    213.27166    180.76586 
    1000    1450.9218   -4195.6715    6553.4141    7878.0818    7703.7128    6631.6975    632.84685    307.85802    806.07769 
Loop time of 3.50782 on 1 procs for 1000 steps with 1372 atoms

Performance: 24.631 ns/day, 0.974 hours/ns, 285.077 timesteps/s
99.6% CPU use with 1 MPI tasks x 1 OpenMP threads

MPI task timing breakdown:
Section |  min time  |  avg time  |  max time  |%varavg| %total
---------------------------------------------------------------
Pair    | 2.3392     | 2.3392     | 2.3392     |   0.0 | 66.68
Bond    | 8.3351e-05 | 8.3351e-05 | 8.3351e-05 |   0.0 |  0.00
Neigh   | 1.0873     | 1.0873     | 1.0873     |   0.0 | 31.00
Comm    | 0.014922   | 0.014922   | 0.014922   |   0.0 |  0.43
Output  | 0.0002091  | 0.0002091  | 0.0002091  |   0.0 |  0.01
Modify  | 0.060448   | 0.060448   | 0.060448   |   0.0 |  1.72
Other   |            | 0.005663   |            |       |  0.16

Nlocal:    1372 ave 1372 max 1372 min
Histogram: 1 0 0 0 0 0 0 0 0 0
Nghost:    3296 ave 3296 max 3296 min
Histogram: 1 0 0 0 0 0 0 0 0 0
Neighs:    61061 ave 61061 max 61061 min
Histogram: 1 0 0 0 0 0 0 0 0 0

Total # of neighbors = 61061
Ave neighs/atom = 44.5051
Ave special neighs/atom = 0
Neighbor list builds = 38
Dangerous builds = 0
WARNING: New thermo_style command, previous thermo_modify settings will be lost (../output.cpp:705)
Setting up Verlet run ...
  Unit style    : metal
  Current step  : 0
  Time step     : 0.001
Per MPI rank memory allocation (min/avg/max) = 6.052 | 6.052 | 6.052 Mbytes
Step Temp PotEng Press f_avp[1] f_avp[2] f_avp[3] f_avp[4] f_avp[5] f_avp[6] 
       0    1450.9218   -4195.6715    6553.4141            0            0            0            0            0            0 
     100    1507.1225   -4187.3905    8829.1483    6995.8542    8072.8977    8444.3804    1667.7738    290.50921    2490.4266 
     200    1510.2208   -4191.7064    10234.701    9563.8442    8334.3738    7852.9746    1155.4734    1263.0324    954.72149 
     300    1472.8173   -4192.8633    9708.2428    9997.3208    10817.985    9268.7349    783.30095    343.65478    713.27887 
Loop time of 1.04072 on 1 procs for 300 steps with 1372 atoms

Performance: 24.906 ns/day, 0.964 hours/ns, 288.263 timesteps/s
99.7% CPU use with 1 MPI tasks x 1 OpenMP threads

MPI task timing breakdown:
Section |  min time  |  avg time  |  max time  |%varavg| %total
---------------------------------------------------------------
Pair    | 0.698      | 0.698      | 0.698      |   0.0 | 67.07
Bond    | 2.6242e-05 | 2.6242e-05 | 2.6242e-05 |   0.0 |  0.00
Neigh   | 0.31856    | 0.31856    | 0.31856    |   0.0 | 30.61
Comm    | 0.0044924  | 0.0044924  | 0.0044924  |   0.0 |  0.43
Output  | 5.7855e-05 | 5.7855e-05 | 5.7855e-05 |   0.0 |  0.01
Modify  | 0.017926   | 0.017926   | 0.017926   |   0.0 |  1.72
Other   |            | 0.001654   |            |       |  0.16

Nlocal:    1372 ave 1372 max 1372 min
Histogram: 1 0 0 0 0 0 0 0 0 0
Nghost:    3340 ave 3340 max 3340 min
Histogram: 1 0 0 0 0 0 0 0 0 0
Neighs:    61209 ave 61209 max 61209 min
Histogram: 1 0 0 0 0 0 0 0 0 0

Total # of neighbors = 61209
Ave neighs/atom = 44.613
Ave special neighs/atom = 0
Neighbor list builds = 11
Dangerous builds = 0
OMP_NUM_THREADS environment is not set. Defaulting to 1 thread. (../comm.cpp:88)
  using 1 OpenMP thread(s) per MPI task
Reading restart file ...
  restart file = 30 Apr 2019, LAMMPS = 30 Apr 2019
  restoring atom style full from restart
  orthogonal box = (0 0 0) to (30.1216 30.1216 30.1216)
  1 by 1 by 1 MPI processor grid
  pair style eam/fs stores no restart info
  1372 atoms
Finding 1-2 1-3 1-4 neighbors ...
  special bond factors lj:   0          0          0         
  special bond factors coul: 0          0          0         
  0 = max # of 1-2 neighbors
  0 = max # of 1-3 neighbors
  0 = max # of 1-4 neighbors
  1 = max # of special neighbors
  special bonds CPU = 0.000118744 secs
  read_restart CPU = 0.000503522 secs
Changing box ...
  triclinic box = (0 0 0) to (30.1216 30.1216 30.1216) with tilt (0 0 0)
Changing box ...
  triclinic box = (0 0 0) to (30.1216 30.1216 30.7241) with tilt (0 0 0)
Neighbor list info ...
  update every 1 steps, delay 0 steps, check yes
  max neighbors/atom: 2000, page size: 100000
  master list distance cutoff = 7.5
  ghost atom cutoff = 7.5
  1 neighbor lists, perpetual/occasional/extra = 1 0 0
  (1) pair eam/fs, perpetual
      attributes: half, newton on
      pair build: half/nsq/newton
      stencil: none
      bin: none
Setting up Verlet run ...
  Unit style    : metal
  Current step  : 0
  Time step     : 0.001
Per MPI rank memory allocation (min/avg/max) = 6.051 | 6.051 | 6.051 Mbytes
Step Temp PotEng Press f_avp[1] f_avp[2] f_avp[3] f_avp[4] f_avp[5] f_avp[6] 
       0     1463.743   -4212.8138   -20276.739            0            0            0            0            0            0 
     100    1500.5074    -4178.172   -10008.114   -13182.308   -11837.788   -15240.117     2163.742    1069.7981    314.04634 
     200    1501.1156   -4153.4499   -1623.6801   -4524.4078   -6572.0427   -4929.6875    1667.5015    551.92764    1561.2433 
     300    1455.5161   -4148.4491     1705.456    1503.0919   -156.64657    1992.9262    1862.0587    437.50718    1231.7707 
     400    1471.7267   -4152.3506    74.309286    2763.0536    1767.3567    250.00748    346.48556    193.46602    788.37093 
     500    1543.0878    -4157.617   -1788.7862    701.01862    838.63385   -3260.5412    978.34561    38.221178    455.58669 
     600     1578.988   -4155.4968   -1379.3687   -678.33464   -534.99728   -4742.1736    1046.3373    679.56476    102.58834 
     700    1518.8731    -4162.485   -4143.9748   -3284.9146   -2460.0475    -5379.837    403.63211    878.15603   -1074.2459 
     800    1543.5148   -4163.8569   -3835.8826   -3841.9666   -4810.6262   -4804.1233    945.89475    241.71006   -660.84197 
     900    1521.1085   -4170.3198   -4357.2472   -2745.4275   -4078.3385   -3796.8211    934.19973     159.4715     92.57347 
    1000    1457.8966    -4164.172   -4627.3824   -2989.8685   -3810.1907   -5901.5152    420.69823    502.56622    622.09427 
Loop time of 3.38094 on 1 procs for 1000 steps with 1372 atoms

Performance: 25.555 ns/day, 0.939 hours/ns, 295.776 timesteps/s
99.6% CPU use with 1 MPI tasks x 1 OpenMP threads

MPI task timing breakdown:
Section |  min time  |  avg time  |  max time  |%varavg| %total
---------------------------------------------------------------
Pair    | 2.2016     | 2.2016     | 2.2016     |   0.0 | 65.12
Bond    | 8.6009e-05 | 8.6009e-05 | 8.6009e-05 |   0.0 |  0.00
Neigh   | 1.0984     | 1.0984     | 1.0984     |   0.0 | 32.49
Comm    | 0.015048   | 0.015048   | 0.015048   |   0.0 |  0.45
Output  | 0.00019921 | 0.00019921 | 0.00019921 |   0.0 |  0.01
Modify  | 0.059891   | 0.059891   | 0.059891   |   0.0 |  1.77
Other   |            | 0.005621   |            |       |  0.17

Nlocal:    1372 ave 1372 max 1372 min
Histogram: 1 0 0 0 0 0 0 0 0 0
Nghost:    3269 ave 3269 max 3269 min
Histogram: 1 0 0 0 0 0 0 0 0 0
Neighs:    58577 ave 58577 max 58577 min
Histogram: 1 0 0 0 0 0 0 0 0 0

Total # of neighbors = 58577
Ave neighs/atom = 42.6946
Ave special neighs/atom = 0
Neighbor list builds = 39
Dangerous builds = 0
WARNING: New thermo_style command, previous thermo_modify settings will be lost (../output.cpp:705)
Setting up Verlet run ...
  Unit style    : metal
  Current step  : 0
  Time step     : 0.001
Per MPI rank memory allocation (min/avg/max) = 6.051 | 6.051 | 6.051 Mbytes
Step Temp PotEng Press f_avp[1] f_avp[2] f_avp[3] f_avp[4] f_avp[5] f_avp[6] 
       0    1457.8966    -4164.172   -4627.3824            0            0            0            0            0            0 
     100    1506.1126   -4153.5041   -1748.9488   -3476.3497     -3012.72   -2724.0266    923.66704    485.77435    1684.8168 
     200    1513.1064   -4159.4486   -159.22308   -765.14337   -1482.4765   -2182.8788    1050.7104    1327.7886    526.81282 
     300    1469.2406   -4164.6654   -928.73669   -744.69735    529.62713   -693.62413    421.08669    478.07549    797.39428 
Loop time of 0.991547 on 1 procs for 300 steps with 1372 atoms

Performance: 26.141 ns/day, 0.918 hours/ns, 302.558 timesteps/s
99.7% CPU use with 1 MPI tasks x 1 OpenMP threads

MPI task timing breakdown:
Section |  min time  |  avg time  |  max time  |%varavg| %total
---------------------------------------------------------------
Pair    | 0.65244    | 0.65244    | 0.65244    |   0.0 | 65.80
Bond    | 2.7274e-05 | 2.7274e-05 | 2.7274e-05 |   0.0 |  0.00
Neigh   | 0.3148     | 0.3148     | 0.3148     |   0.0 | 31.75
Comm    | 0.0045514  | 0.0045514  | 0.0045514  |   0.0 |  0.46
Output  | 5.6186e-05 | 5.6186e-05 | 5.6186e-05 |   0.0 |  0.01
Modify  | 0.017991   | 0.017991   | 0.017991   |   0.0 |  1.81
Other   |            | 0.001677   |            |       |  0.17

Nlocal:    1372 ave 1372 max 1372 min
Histogram: 1 0 0 0 0 0 0 0 0 0
Nghost:    3270 ave 3270 max 3270 min
Histogram: 1 0 0 0 0 0 0 0 0 0
Neighs:    58818 ave 58818 max 58818 min
Histogram: 1 0 0 0 0 0 0 0 0 0

Total # of neighbors = 58818
Ave neighs/atom = 42.8703
Ave special neighs/atom = 0
Neighbor list builds = 11
Dangerous builds = 0
OMP_NUM_THREADS environment is not set. Defaulting to 1 thread. (../comm.cpp:88)
  using 1 OpenMP thread(s) per MPI task
Reading restart file ...
  restart file = 30 Apr 2019, LAMMPS = 30 Apr 2019
  restoring atom style full from restart
  orthogonal box = (0 0 0) to (30.1216 30.1216 30.1216)
  1 by 1 by 1 MPI processor grid
  pair style eam/fs stores no restart info
  1372 atoms
Finding 1-2 1-3 1-4 neighbors ...
  special bond factors lj:   0          0          0         
  special bond factors coul: 0          0          0         
  0 = max # of 1-2 neighbors
  0 = max # of 1-3 neighbors
  0 = max # of 1-4 neighbors
  1 = max # of special neighbors
  special bonds CPU = 0.000125963 secs
  read_restart CPU = 0.000631917 secs
Changing box ...
  triclinic box = (0 0 0) to (30.1216 30.1216 30.1216) with tilt (0 0 0)
Changing box ...
  triclinic box = (0 0 0) to (30.1216 30.1216 30.1216) with tilt (0 0 -0.602432)
Neighbor list info ...
  update every 1 steps, delay 0 steps, check yes
  max neighbors/atom: 2000, page size: 100000
  master list distance cutoff = 7.5
  ghost atom cutoff = 7.5
  1 neighbor lists, perpetual/occasional/extra = 1 0 0
  (1) pair eam/fs, perpetual
      attributes: half, newton on
      pair build: half/nsq/newton
      stencil: none
      bin: none
Setting up Verlet run ...
  Unit style    : metal
  Current step  : 0
  Time step     : 0.001
Per MPI rank memory allocation (min/avg/max) = 6.051 | 6.051 | 6.051 Mbytes
Step Temp PotEng Press f_avp[1] f_avp[2] f_avp[3] f_avp[4] f_avp[5] f_avp[6] 
       0     1463.743   -4221.0207   -11616.184            0            0            0            0            0            0 
     100    1497.1861   -4192.7026   -3249.6022   -6732.5964   -5305.7385    -6116.988    2120.4768    1025.9805    2514.7059 
     200     1500.664   -4167.7936    4561.8317    1435.5925   -657.32706    2522.7133    1578.1985    573.47499    2883.1939 
     300    1454.3983   -4163.4331    7239.4977    7006.0526    5435.7797    8358.2031    1848.7409     419.9036    1952.6183 
     400    1469.9399   -4168.6024    5269.1894    7943.3437    6936.4314    5966.8399    356.65917    252.73472    1329.6057 
     500    1543.5103   -4174.2475    3587.6116    5758.4783    5946.1326    2120.9233    851.05005    47.784212    871.26407 
     600    1576.3589   -4171.5468    3950.3588    4533.0821    4157.7406    818.44828    801.26174    613.66385    413.49599 
     700    1518.1743   -4180.1136     943.2955    1961.4516     2439.123    380.50914    379.78377    677.65631   -605.22619 
     800    1542.1614   -4181.6461    1414.6106    1296.8786    64.399997    538.83494    936.86572    229.24565   -282.29284 
     900    1516.6018   -4187.9952    744.00948    2241.3299    929.96662     1560.136    885.49988    165.56662    383.37909 
    1000    1455.6033    -4180.604    422.48373    2443.2598    1346.6839   -113.30683    610.25671    284.60305    1091.3834 
Loop time of 3.36971 on 1 procs for 1000 steps with 1372 atoms

Performance: 25.640 ns/day, 0.936 hours/ns, 296.762 timesteps/s
99.7% CPU use with 1 MPI tasks x 1 OpenMP threads

MPI task timing breakdown:
Section |  min time  |  avg time  |  max time  |%varavg| %total
---------------------------------------------------------------
Pair    | 2.187      | 2.187      | 2.187      |   0.0 | 64.90
Bond    | 0.00010322 | 0.00010322 | 0.00010322 |   0.0 |  0.00
Neigh   | 1.1017     | 1.1017     | 1.1017     |   0.0 | 32.70
Comm    | 0.014783   | 0.014783   | 0.014783   |   0.0 |  0.44
Output  | 0.00020476 | 0.00020476 | 0.00020476 |   0.0 |  0.01
Modify  | 0.060285   | 0.060285   | 0.060285   |   0.0 |  1.79
Other   |            | 0.005602   |            |       |  0.17

Nlocal:    1372 ave 1372 max 1372 min
Histogram: 1 0 0 0 0 0 0 0 0 0
Nghost:    3265 ave 3265 max 3265 min
Histogram: 1 0 0 0 0 0 0 0 0 0
Neighs:    59839 ave 59839 max 59839 min
Histogram: 1 0 0 0 0 0 0 0 0 0

Total # of neighbors = 59839
Ave neighs/atom = 43.6144
Ave special neighs/atom = 0
Neighbor list builds = 39
Dangerous builds = 0
WARNING: New thermo_style command, previous thermo_modify settings will be lost (../output.cpp:705)
Setting up Verlet run ...
  Unit style    : metal
  Current step  : 0
  Time step     : 0.001
Per MPI rank memory allocation (min/avg/max) = 6.051 | 6.051 | 6.051 Mbytes
Step Temp PotEng Press f_avp[1] f_avp[2] f_avp[3] f_avp[4] f_avp[5] f_avp[6] 
       0    1455.6033    -4180.604    422.48373            0            0            0            0            0            0 
     100    1508.3193   -4170.8381    3011.0677    1529.4466    1996.0596    2411.7127    1470.6762    289.33908     2334.857 
     200    1510.4423    -4175.359    4652.8791    4112.5613    2892.3945    2117.2099      1213.57    1152.3835    633.49836 
     300     1472.845   -4179.3022    3817.2273    4470.5918    4881.7601    4081.6156    688.37364    285.69609    910.83207 
Loop time of 1.0246 on 1 procs for 300 steps with 1372 atoms

Performance: 25.298 ns/day, 0.949 hours/ns, 292.796 timesteps/s
99.7% CPU use with 1 MPI tasks x 1 OpenMP threads

MPI task timing breakdown:
Section |  min time  |  avg time  |  max time  |%varavg| %total
---------------------------------------------------------------
Pair    | 0.68304    | 0.68304    | 0.68304    |   0.0 | 66.66
Bond    | 3.1405e-05 | 3.1405e-05 | 3.1405e-05 |   0.0 |  0.00
Neigh   | 0.31731    | 0.31731    | 0.31731    |   0.0 | 30.97
Comm    | 0.0044054  | 0.0044054  | 0.0044054  |   0.0 |  0.43
Output  | 5.6628e-05 | 5.6628e-05 | 5.6628e-05 |   0.0 |  0.01
Modify  | 0.018107   | 0.018107   | 0.018107   |   0.0 |  1.77
Other   |            | 0.001661   |            |       |  0.16

Nlocal:    1372 ave 1372 max 1372 min
Histogram: 1 0 0 0 0 0 0 0 0 0
Nghost:    3321 ave 3321 max 3321 min
Histogram: 1 0 0 0 0 0 0 0 0 0
Neighs:    60028 ave 60028 max 60028 min
Histogram: 1 0 0 0 0 0 0 0 0 0

Total # of neighbors = 60028
Ave neighs/atom = 43.7522
Ave special neighs/atom = 0
Neighbor list builds = 11
Dangerous builds = 0
OMP_NUM_THREADS environment is not set. Defaulting to 1 thread. (../comm.cpp:88)
  using 1 OpenMP thread(s) per MPI task
Reading restart file ...
  restart file = 30 Apr 2019, LAMMPS = 30 Apr 2019
  restoring atom style full from restart
  orthogonal box = (0 0 0) to (30.1216 30.1216 30.1216)
  1 by 1 by 1 MPI processor grid
  pair style eam/fs stores no restart info
  1372 atoms
Finding 1-2 1-3 1-4 neighbors ...
  special bond factors lj:   0          0          0         
  special bond factors coul: 0          0          0         
  0 = max # of 1-2 neighbors
  0 = max # of 1-3 neighbors
  0 = max # of 1-4 neighbors
  1 = max # of special neighbors
  special bonds CPU = 0.000121501 secs
  read_restart CPU = 0.000844987 secs
Changing box ...
  triclinic box = (0 0 0) to (30.1216 30.1216 30.1216) with tilt (0 0 0)
Changing box ...
  triclinic box = (0 0 0) to (30.1216 30.1216 30.1216) with tilt (0 0 0.602432)
Neighbor list info ...
  update every 1 steps, delay 0 steps, check yes
  max neighbors/atom: 2000, page size: 100000
  master list distance cutoff = 7.5
  ghost atom cutoff = 7.5
  1 neighbor lists, perpetual/occasional/extra = 1 0 0
  (1) pair eam/fs, perpetual
      attributes: half, newton on
      pair build: half/nsq/newton
      stencil: none
      bin: none
Setting up Verlet run ...
  Unit style    : metal
  Current step  : 0
  Time step     : 0.001
Per MPI rank memory allocation (min/avg/max) = 6.051 | 6.051 | 6.051 Mbytes
Step Temp PotEng Press f_avp[1] f_avp[2] f_avp[3] f_avp[4] f_avp[5] f_avp[6] 
       0     1463.743   -4221.6301   -11583.894            0            0            0            0            0            0 
     100    1499.8119   -4193.0424   -3393.3455   -6747.2729   -5355.9377   -6123.9507    2334.0682    1157.9037    -1873.041 
     200    1501.4332   -4168.6784    4466.7805    1332.2374   -787.38546    2390.4576    1835.9714    665.68683    407.41697 
     300    1455.3749   -4163.7238    7214.2879    6961.5795    5266.1312    8393.7437    1929.2882    528.03395    517.50512 
     400    1470.3793    -4168.175    5744.7608    8237.8901    7306.2887    6136.8164    234.11708    406.07516    133.28953 
     500    1543.3423   -4173.9166    3703.0343     5984.937    6121.7806    2318.6746    816.26952    197.81521     -109.653 
     600    1576.0562    -4171.232    4032.3455    4393.3639    4558.6209    1229.4858    941.41357    641.91351   -494.41759 
     700    1516.3107   -4178.8954    1181.9995    1748.8025    2824.9054    250.77697    222.67778    765.12044   -1562.6076 
     800     1541.585   -4180.7583    1335.0167    1054.1528    497.93958    615.90517    983.17555    378.62762   -901.82586 
     900    1517.9987   -4187.7484    393.80798    1708.4658    1086.6937    1442.6502    1093.7997    221.65458   -146.64686 
    1000    1453.8334   -4180.1209    179.95418    1414.8648    1327.5806   -543.40837    455.89593    607.51715    241.67045 
Loop time of 3.38745 on 1 procs for 1000 steps with 1372 atoms

Performance: 25.506 ns/day, 0.941 hours/ns, 295.207 timesteps/s
99.7% CPU use with 1 MPI tasks x 1 OpenMP threads

MPI task timing breakdown:
Section |  min time  |  avg time  |  max time  |%varavg| %total
---------------------------------------------------------------
Pair    | 2.2041     | 2.2041     | 2.2041     |   0.0 | 65.07
Bond    | 0.00010765 | 0.00010765 | 0.00010765 |   0.0 |  0.00
Neigh   | 1.1023     | 1.1023     | 1.1023     |   0.0 | 32.54
Comm    | 0.014879   | 0.014879   | 0.014879   |   0.0 |  0.44
Output  | 0.0001903  | 0.0001903  | 0.0001903  |   0.0 |  0.01
Modify  | 0.060245   | 0.060245   | 0.060245   |   0.0 |  1.78
Other   |            | 0.005559   |            |       |  0.16

Nlocal:    1372 ave 1372 max 1372 min
Histogram: 1 0 0 0 0 0 0 0 0 0
Nghost:    3284 ave 3284 max 3284 min
Histogram: 1 0 0 0 0 0 0 0 0 0
Neighs:    59811 ave 59811 max 59811 min
Histogram: 1 0 0 0 0 0 0 0 0 0

Total # of neighbors = 59811
Ave neighs/atom = 43.594
Ave special neighs/atom = 0
Neighbor list builds = 39
Dangerous builds = 0
WARNING: New thermo_style command, previous thermo_modify settings will be lost (../output.cpp:705)
Setting up Verlet run ...
  Unit style    : metal
  Current step  : 0
  Time step     : 0.001
Per MPI rank memory allocation (min/avg/max) = 6.051 | 6.051 | 6.051 Mbytes
Step Temp PotEng Press f_avp[1] f_avp[2] f_avp[3] f_avp[4] f_avp[5] f_avp[6] 
       0    1453.8334   -4180.1209    179.95418            0            0            0            0            0            0 
     100    1507.0343    -4170.935    2769.9114    904.00364    1753.2369    2095.0938    1297.4635    265.67976    1884.9043 
     200    1511.8635    -4175.979    4339.6659     3705.052    2705.8063    2136.0871     1108.616    1436.7624    780.57245 
     300     1472.063   -4178.0195    3627.3125    3635.7404    5138.9154     3279.774    567.98341    396.81767     685.5943 
Loop time of 1.01809 on 1 procs for 300 steps with 1372 atoms

Performance: 25.459 ns/day, 0.943 hours/ns, 294.670 timesteps/s
99.4% CPU use with 1 MPI tasks x 1 OpenMP threads

MPI task timing breakdown:
Section |  min time  |  avg time  |  max time  |%varavg| %total
---------------------------------------------------------------
Pair    | 0.67592    | 0.67592    | 0.67592    |   0.0 | 66.39
Bond    | 3.2265e-05 | 3.2265e-05 | 3.2265e-05 |   0.0 |  0.00
Neigh   | 0.31675    | 0.31675    | 0.31675    |   0.0 | 31.11
Comm    | 0.0044329  | 0.0044329  | 0.0044329  |   0.0 |  0.44
Output  | 6.4415e-05 | 6.4415e-05 | 6.4415e-05 |   0.0 |  0.01
Modify  | 0.019211   | 0.019211   | 0.019211   |   0.0 |  1.89
Other   |            | 0.00167    |            |       |  0.16

Nlocal:    1372 ave 1372 max 1372 min
Histogram: 1 0 0 0 0 0 0 0 0 0
Nghost:    3306 ave 3306 max 3306 min
Histogram: 1 0 0 0 0 0 0 0 0 0
Neighs:    60015 ave 60015 max 60015 min
Histogram: 1 0 0 0 0 0 0 0 0 0

Total # of neighbors = 60015
Ave neighs/atom = 43.7427
Ave special neighs/atom = 0
Neighbor list builds = 11
Dangerous builds = 0
OMP_NUM_THREADS environment is not set. Defaulting to 1 thread. (../comm.cpp:88)
  using 1 OpenMP thread(s) per MPI task
Reading restart file ...
  restart file = 30 Apr 2019, LAMMPS = 30 Apr 2019
  restoring atom style full from restart
  orthogonal box = (0 0 0) to (30.1216 30.1216 30.1216)
  1 by 1 by 1 MPI processor grid
  pair style eam/fs stores no restart info
  1372 atoms
Finding 1-2 1-3 1-4 neighbors ...
  special bond factors lj:   0          0          0         
  special bond factors coul: 0          0          0         
  0 = max # of 1-2 neighbors
  0 = max # of 1-3 neighbors
  0 = max # of 1-4 neighbors
  1 = max # of special neighbors
  special bonds CPU = 0.000123396 secs
  read_restart CPU = 0.000700735 secs
Changing box ...
  triclinic box = (0 0 0) to (30.1216 30.1216 30.1216) with tilt (0 0 0)
Changing box ...
  triclinic box = (0 0 0) to (30.1216 30.1216 30.1216) with tilt (0 -0.602432 0)
Neighbor list info ...
  update every 1 steps, delay 0 steps, check yes
  max neighbors/atom: 2000, page size: 100000
  master list distance cutoff = 7.5
  ghost atom cutoff = 7.5
  1 neighbor lists, perpetual/occasional/extra = 1 0 0
  (1) pair eam/fs, perpetual
      attributes: half, newton on
      pair build: half/nsq/newton
      stencil: none
      bin: none
Setting up Verlet run ...
  Unit style    : metal
  Current step  : 0
  Time step     : 0.001
Per MPI rank memory allocation (min/avg/max) = 6.051 | 6.051 | 6.051 Mbytes
Step Temp PotEng Press f_avp[1] f_avp[2] f_avp[3] f_avp[4] f_avp[5] f_avp[6] 
       0     1463.743    -4221.401    -11587.11            0            0            0            0            0            0 
     100    1498.1572   -4192.8852   -3425.7833   -6746.5495   -5438.1527   -6088.8136    2233.2012    3272.2442    274.51096 
     200    1501.3041   -4168.6001    4394.0052    1326.0342   -886.36332    2490.9285    1737.2727    1957.8196    1609.7762 
     300     1454.586   -4163.6382    7178.7144    6828.6838    5267.9376    8432.5353    1885.0776    1236.9403    1145.2351 
     400    1469.1622   -4168.1503    5504.7315     7988.363    7141.4672    6159.4986    257.26798    819.59167    704.26014 
     500    1543.7442   -4174.2089     3635.824    5763.2349    6001.7675    2384.9062    675.53289    582.92809    357.53077 
     600    1575.0356   -4171.5084    3899.3455    4194.7974    4350.7014     1042.003    616.99875    1093.7956   -43.203725 
     700    1517.8542   -4180.1229    978.78404    1678.7388    2530.5094    257.52445    279.50224    1247.1926   -1008.5765 
     800    1542.1082   -4181.4572    1300.1028    1214.8843    85.518163    660.22594    925.25378    830.12358   -758.60416 
     900    1518.7122   -4188.1353    417.07958    1923.1569     748.9405    1516.5483    941.41836    647.27752   -6.6369496 
    1000     1454.989   -4179.6005    368.33511    2045.9143    1240.8368   -384.69698    339.92416    926.68736     785.2796 
Loop time of 3.32442 on 1 procs for 1000 steps with 1372 atoms

Performance: 25.989 ns/day, 0.923 hours/ns, 300.804 timesteps/s
99.7% CPU use with 1 MPI tasks x 1 OpenMP threads

MPI task timing breakdown:
Section |  min time  |  avg time  |  max time  |%varavg| %total
---------------------------------------------------------------
Pair    | 2.1423     | 2.1423     | 2.1423     |   0.0 | 64.44
Bond    | 8.593e-05  | 8.593e-05  | 8.593e-05  |   0.0 |  0.00
Neigh   | 1.1015     | 1.1015     | 1.1015     |   0.0 | 33.13
Comm    | 0.014772   | 0.014772   | 0.014772   |   0.0 |  0.44
Output  | 0.00019314 | 0.00019314 | 0.00019314 |   0.0 |  0.01
Modify  | 0.059913   | 0.059913   | 0.059913   |   0.0 |  1.80
Other   |            | 0.005632   |            |       |  0.17

Nlocal:    1372 ave 1372 max 1372 min
Histogram: 1 0 0 0 0 0 0 0 0 0
Nghost:    3280 ave 3280 max 3280 min
Histogram: 1 0 0 0 0 0 0 0 0 0
Neighs:    59778 ave 59778 max 59778 min
Histogram: 1 0 0 0 0 0 0 0 0 0

Total # of neighbors = 59778
Ave neighs/atom = 43.57
Ave special neighs/atom = 0
Neighbor list builds = 39
Dangerous builds = 0
WARNING: New thermo_style command, previous thermo_modify settings will be lost (../output.cpp:705)
Setting up Verlet run ...
  Unit style    : metal
  Current step  : 0
  Time step     : 0.001
Per MPI rank memory allocation (min/avg/max) = 6.051 | 6.051 | 6.051 Mbytes
Step Temp PotEng Press f_avp[1] f_avp[2] f_avp[3] f_avp[4] f_avp[5] f_avp[6] 
       0     1454.989   -4179.6005    368.33511            0            0            0            0            0            0 
     100    1504.1702   -4171.5939     2953.478    1282.2561    2046.0581     2588.141    1304.0187    542.24024    2290.3124 
     200    1510.3074   -4176.4277    4291.1353    3908.0934    2741.3989    2215.2581    1050.8856    1423.2472    646.71504 
     300     1470.177   -4178.4692    3860.8738    4237.8171    4680.7064    3886.1749    589.15873    383.74129    706.56507 
Loop time of 1.0044 on 1 procs for 300 steps with 1372 atoms

Performance: 25.806 ns/day, 0.930 hours/ns, 298.684 timesteps/s
99.7% CPU use with 1 MPI tasks x 1 OpenMP threads

MPI task timing breakdown:
Section |  min time  |  avg time  |  max time  |%varavg| %total
---------------------------------------------------------------
Pair    | 0.66344    | 0.66344    | 0.66344    |   0.0 | 66.05
Bond    | 2.6422e-05 | 2.6422e-05 | 2.6422e-05 |   0.0 |  0.00
Neigh   | 0.31682    | 0.31682    | 0.31682    |   0.0 | 31.54
Comm    | 0.0043655  | 0.0043655  | 0.0043655  |   0.0 |  0.43
Output  | 6.7107e-05 | 6.7107e-05 | 6.7107e-05 |   0.0 |  0.01
Modify  | 0.018005   | 0.018005   | 0.018005   |   0.0 |  1.79
Other   |            | 0.001684   |            |       |  0.17

Nlocal:    1372 ave 1372 max 1372 min
Histogram: 1 0 0 0 0 0 0 0 0 0
Nghost:    3315 ave 3315 max 3315 min
Histogram: 1 0 0 0 0 0 0 0 0 0
Neighs:    59988 ave 59988 max 59988 min
Histogram: 1 0 0 0 0 0 0 0 0 0

Total # of neighbors = 59988
Ave neighs/atom = 43.723
Ave special neighs/atom = 0
Neighbor list builds = 11
Dangerous builds = 0
OMP_NUM_THREADS environment is not set. Defaulting to 1 thread. (../comm.cpp:88)
  using 1 OpenMP thread(s) per MPI task
Reading restart file ...
  restart file = 30 Apr 2019, LAMMPS = 30 Apr 2019
  restoring atom style full from restart
  orthogonal box = (0 0 0) to (30.1216 30.1216 30.1216)
  1 by 1 by 1 MPI processor grid
  pair style eam/fs stores no restart info
  1372 atoms
Finding 1-2 1-3 1-4 neighbors ...
  special bond factors lj:   0          0          0         
  special bond factors coul: 0          0          0         
  0 = max # of 1-2 neighbors
  0 = max # of 1-3 neighbors
  0 = max # of 1-4 neighbors
  1 = max # of special neighbors
  special bonds CPU = 0.000119286 secs
  read_restart CPU = 0.000922289 secs
Changing box ...
  triclinic box = (0 0 0) to (30.1216 30.1216 30.1216) with tilt (0 0 0)
Changing box ...
  triclinic box = (0 0 0) to (30.1216 30.1216 30.1216) with tilt (0 0.602432 0)
Neighbor list info ...
  update every 1 steps, delay 0 steps, check yes
  max neighbors/atom: 2000, page size: 100000
  master list distance cutoff = 7.5
  ghost atom cutoff = 7.5
  1 neighbor lists, perpetual/occasional/extra = 1 0 0
  (1) pair eam/fs, perpetual
      attributes: half, newton on
      pair build: half/nsq/newton
      stencil: none
      bin: none
Setting up Verlet run ...
  Unit style    : metal
  Current step  : 0
  Time step     : 0.001
Per MPI rank memory allocation (min/avg/max) = 6.051 | 6.051 | 6.051 Mbytes
Step Temp PotEng Press f_avp[1] f_avp[2] f_avp[3] f_avp[4] f_avp[5] f_avp[6] 
       0     1463.743   -4221.2617   -11606.656            0            0            0            0            0            0 
     100    1498.8678   -4192.8651   -3226.5138   -6673.5697   -5273.1157   -6175.8445    2215.9165    -1080.075    361.40802 
     200    1500.9082   -4167.8641    4639.0197    1465.7502   -554.94476     2429.764    1672.2766   -726.62825    1691.4991 
     300    1454.9615   -4163.5416    7290.1176    7150.6131    5456.6567    8325.2828    1886.7455   -292.75442    1315.0092 
     400    1471.1731    -4168.731    5449.6594    8196.2996    7112.2665     5924.084    338.12331   -183.32654      752.905 
     500    1543.0977   -4173.9653    3628.7025    5993.7877    6048.4627    2023.8103    977.84211   -367.45797    360.80328 
     600     1577.277   -4171.2608    4073.4367    4715.9149    4375.6702    1009.1745    1111.9774    190.55747   -69.510908 
     700    1516.6734   -4179.1004    1075.7146     1996.264     2745.124    343.94423    268.87502    241.95095   -1161.4627 
     800     1540.334   -4180.8468    1362.9935     1115.443    473.84651     379.2119    950.37188   -135.63019   -449.60375 
     900    1515.7488   -4187.9572    527.84868    2016.9472    1177.3679    1235.7146    1095.0712   -235.49347    259.51055 
    1000    1454.9445   -4180.5468    99.766524    1726.9253    1418.4774   -612.76287    713.57361    67.813565    669.60702 
Loop time of 3.32017 on 1 procs for 1000 steps with 1372 atoms

Performance: 26.023 ns/day, 0.922 hours/ns, 301.189 timesteps/s
99.7% CPU use with 1 MPI tasks x 1 OpenMP threads

MPI task timing breakdown:
Section |  min time  |  avg time  |  max time  |%varavg| %total
---------------------------------------------------------------
Pair    | 2.1396     | 2.1396     | 2.1396     |   0.0 | 64.44
Bond    | 7.7274e-05 | 7.7274e-05 | 7.7274e-05 |   0.0 |  0.00
Neigh   | 1.1        | 1.1        | 1.1        |   0.0 | 33.13
Comm    | 0.014845   | 0.014845   | 0.014845   |   0.0 |  0.45
Output  | 0.00019174 | 0.00019174 | 0.00019174 |   0.0 |  0.01
Modify  | 0.05978    | 0.05978    | 0.05978    |   0.0 |  1.80
Other   |            | 0.005616   |            |       |  0.17

Nlocal:    1372 ave 1372 max 1372 min
Histogram: 1 0 0 0 0 0 0 0 0 0
Nghost:    3279 ave 3279 max 3279 min
Histogram: 1 0 0 0 0 0 0 0 0 0
Neighs:    59810 ave 59810 max 59810 min
Histogram: 1 0 0 0 0 0 0 0 0 0

Total # of neighbors = 59810
Ave neighs/atom = 43.5933
Ave special neighs/atom = 0
Neighbor list builds = 39
Dangerous builds = 0
WARNING: New thermo_style command, previous thermo_modify settings will be lost (../output.cpp:705)
Setting up Verlet run ...
  Unit style    : metal
  Current step  : 0
  Time step     : 0.001
Per MPI rank memory allocation (min/avg/max) = 6.051 | 6.051 | 6.051 Mbytes
Step Temp PotEng Press f_avp[1] f_avp[2] f_avp[3] f_avp[4] f_avp[5] f_avp[6] 
       0    1454.9445   -4180.5468    99.766524            0            0            0            0            0            0 
     100    1508.1911   -4170.3181    3014.6963    1240.7723    1828.9813    1966.1303    1356.2082    99.057414    1959.0607 
     200    1512.7001   -4175.4187    4673.1739    4049.6202    2985.3037    2184.0591    1203.5117     1367.361    776.76212 
     300    1473.7545   -4178.4427    3677.4546    3973.3733    5345.9509    3721.3164    626.17414    296.73122    885.97118 
Loop time of 1.00614 on 1 procs for 300 steps with 1372 atoms

Performance: 25.762 ns/day, 0.932 hours/ns, 298.171 timesteps/s
99.6% CPU use with 1 MPI tasks x 1 OpenMP threads

MPI task timing breakdown:
Section |  min time  |  avg time  |  max time  |%varavg| %total
---------------------------------------------------------------
Pair    | 0.66397    | 0.66397    | 0.66397    |   0.0 | 65.99
Bond    | 2.8325e-05 | 2.8325e-05 | 2.8325e-05 |   0.0 |  0.00
Neigh   | 0.31803    | 0.31803    | 0.31803    |   0.0 | 31.61
Comm    | 0.0044201  | 0.0044201  | 0.0044201  |   0.0 |  0.44
Output  | 5.6918e-05 | 5.6918e-05 | 5.6918e-05 |   0.0 |  0.01
Modify  | 0.01796    | 0.01796    | 0.01796    |   0.0 |  1.79
Other   |            | 0.001669   |            |       |  0.17

Nlocal:    1372 ave 1372 max 1372 min
Histogram: 1 0 0 0 0 0 0 0 0 0
Nghost:    3316 ave 3316 max 3316 min
Histogram: 1 0 0 0 0 0 0 0 0 0
Neighs:    59983 ave 59983 max 59983 min
Histogram: 1 0 0 0 0 0 0 0 0 0

Total # of neighbors = 59983
Ave neighs/atom = 43.7194
Ave special neighs/atom = 0
Neighbor list builds = 11
Dangerous builds = 0
OMP_NUM_THREADS environment is not set. Defaulting to 1 thread. (../comm.cpp:88)
  using 1 OpenMP thread(s) per MPI task
Reading restart file ...
  restart file = 30 Apr 2019, LAMMPS = 30 Apr 2019
  restoring atom style full from restart
  orthogonal box = (0 0 0) to (30.1216 30.1216 30.1216)
  1 by 1 by 1 MPI processor grid
  pair style eam/fs stores no restart info
  1372 atoms
Finding 1-2 1-3 1-4 neighbors ...
  special bond factors lj:   0          0          0         
  special bond factors coul: 0          0          0         
  0 = max # of 1-2 neighbors
  0 = max # of 1-3 neighbors
  0 = max # of 1-4 neighbors
  1 = max # of special neighbors
  special bonds CPU = 0.000124321 secs
  read_restart CPU = 0.000603077 secs
Changing box ...
  triclinic box = (0 0 0) to (30.1216 30.1216 30.1216) with tilt (0 0 0)
Changing box ...
  triclinic box = (0 0 0) to (30.1216 30.1216 30.1216) with tilt (-0.602432 0 0)
Neighbor list info ...
  update every 1 steps, delay 0 steps, check yes
  max neighbors/atom: 2000, page size: 100000
  master list distance cutoff = 7.5
  ghost atom cutoff = 7.5
  1 neighbor lists, perpetual/occasional/extra = 1 0 0
  (1) pair eam/fs, perpetual
      attributes: half, newton on
      pair build: half/nsq/newton
      stencil: none
      bin: none
Setting up Verlet run ...
  Unit style    : metal
  Current step  : 0
  Time step     : 0.001
Per MPI rank memory allocation (min/avg/max) = 6.051 | 6.051 | 6.051 Mbytes
Step Temp PotEng Press f_avp[1] f_avp[2] f_avp[3] f_avp[4] f_avp[5] f_avp[6] 
       0     1463.743   -4220.6686   -11498.087            0            0            0            0            0            0 
     100    1497.6639   -4192.5993   -3287.7504   -6745.2114   -5098.9727   -6231.1653     4446.852    1081.0887    239.76081 
     200    1501.6514   -4168.1165    4595.1086    1410.0086   -582.85343    2345.4517    3108.6864    624.13374    1554.9728 
     300    1455.0863   -4163.3736    7225.4669     6897.457    5580.8673    8254.1736    2701.3936    418.80843    1167.7445 
     400    1471.5114   -4168.6042    5356.7852    7979.5463    7199.9873    5949.0197    842.43719    268.33281    725.69772 
     500    1543.7597   -4174.6223    3460.2313    5726.9877    6081.4344    2012.7187    1360.6814    45.422706    353.18396 
     600    1576.6344   -4172.1696    3853.7394    4274.4472    4301.5971    809.31108    1319.8222    516.50704   -89.177189 
     700    1516.2816   -4179.8527    980.91524    1890.5152    2456.4153    71.975817    807.48066    701.97742   -1045.6739 
     800    1540.9692   -4180.6601    1424.3854    1286.1176    272.12851    381.46546     1440.721    384.49489   -725.71614 
     900    1518.3322    -4188.367    377.62887    2080.7915    929.37376    1422.0597    1369.0906    164.54305   -36.270656 
    1000    1453.9747   -4180.1404    278.96886    1969.6356     1472.895   -613.42202    1186.6574    319.86702    774.20836 
Loop time of 3.39509 on 1 procs for 1000 steps with 1372 atoms

Performance: 25.449 ns/day, 0.943 hours/ns, 294.543 timesteps/s
99.7% CPU use with 1 MPI tasks x 1 OpenMP threads

MPI task timing breakdown:
Section |  min time  |  avg time  |  max time  |%varavg| %total
---------------------------------------------------------------
Pair    | 2.1865     | 2.1865     | 2.1865     |   0.0 | 64.40
Bond    | 8.6675e-05 | 8.6675e-05 | 8.6675e-05 |   0.0 |  0.00
Neigh   | 1.1262     | 1.1262     | 1.1262     |   0.0 | 33.17
Comm    | 0.015097   | 0.015097   | 0.015097   |   0.0 |  0.44
Output  | 0.0001977  | 0.0001977  | 0.0001977  |   0.0 |  0.01
Modify  | 0.061244   | 0.061244   | 0.061244   |   0.0 |  1.80
Other   |            | 0.005755   |            |       |  0.17

Nlocal:    1372 ave 1372 max 1372 min
Histogram: 1 0 0 0 0 0 0 0 0 0
Nghost:    3282 ave 3282 max 3282 min
Histogram: 1 0 0 0 0 0 0 0 0 0
Neighs:    59809 ave 59809 max 59809 min
Histogram: 1 0 0 0 0 0 0 0 0 0

Total # of neighbors = 59809
Ave neighs/atom = 43.5926
Ave special neighs/atom = 0
Neighbor list builds = 39
Dangerous builds = 0
WARNING: New thermo_style command, previous thermo_modify settings will be lost (../output.cpp:705)
Setting up Verlet run ...
  Unit style    : metal
  Current step  : 0
  Time step     : 0.001
Per MPI rank memory allocation (min/avg/max) = 6.051 | 6.051 | 6.051 Mbytes
Step Temp PotEng Press f_avp[1] f_avp[2] f_avp[3] f_avp[4] f_avp[5] f_avp[6] 
       0    1453.9747   -4180.1404    278.96886            0            0            0            0            0            0 
     100    1508.3874   -4171.2583    2908.5155    1093.3373    2185.3026     1951.573    1820.9283    168.15177    2223.6052 
     200    1512.2745   -4175.8103    4570.5432    4012.9354    3146.1129    2088.7474    1542.6319    1086.3584    777.41641 
     300    1471.1366   -4178.5639    3928.3352    3953.9426    5191.4199    3624.8827    722.81821    282.88188     881.0874 
Loop time of 1.01955 on 1 procs for 300 steps with 1372 atoms

Performance: 25.423 ns/day, 0.944 hours/ns, 294.248 timesteps/s
99.7% CPU use with 1 MPI tasks x 1 OpenMP threads

MPI task timing breakdown:
Section |  min time  |  avg time  |  max time  |%varavg| %total
---------------------------------------------------------------
Pair    | 0.66938    | 0.66938    | 0.66938    |   0.0 | 65.65
Bond    | 2.7117e-05 | 2.7117e-05 | 2.7117e-05 |   0.0 |  0.00
Neigh   | 0.32541    | 0.32541    | 0.32541    |   0.0 | 31.92
Comm    | 0.0045231  | 0.0045231  | 0.0045231  |   0.0 |  0.44
Output  | 6.4279e-05 | 6.4279e-05 | 6.4279e-05 |   0.0 |  0.01
Modify  | 0.018425   | 0.018425   | 0.018425   |   0.0 |  1.81
Other   |            | 0.001721   |            |       |  0.17

Nlocal:    1372 ave 1372 max 1372 min
Histogram: 1 0 0 0 0 0 0 0 0 0
Nghost:    3322 ave 3322 max 3322 min
Histogram: 1 0 0 0 0 0 0 0 0 0
Neighs:    59977 ave 59977 max 59977 min
Histogram: 1 0 0 0 0 0 0 0 0 0

Total # of neighbors = 59977
Ave neighs/atom = 43.715
Ave special neighs/atom = 0
Neighbor list builds = 11
Dangerous builds = 0
OMP_NUM_THREADS environment is not set. Defaulting to 1 thread. (../comm.cpp:88)
  using 1 OpenMP thread(s) per MPI task
Reading restart file ...
  restart file = 30 Apr 2019, LAMMPS = 30 Apr 2019
  restoring atom style full from restart
  orthogonal box = (0 0 0) to (30.1216 30.1216 30.1216)
  1 by 1 by 1 MPI processor grid
  pair style eam/fs stores no restart info
  1372 atoms
Finding 1-2 1-3 1-4 neighbors ...
  special bond factors lj:   0          0          0         
  special bond factors coul: 0          0          0         
  0 = max # of 1-2 neighbors
  0 = max # of 1-3 neighbors
  0 = max # of 1-4 neighbors
  1 = max # of special neighbors
  special bonds CPU = 0.000121875 secs
  read_restart CPU = 0.000552637 secs
Changing box ...
  triclinic box = (0 0 0) to (30.1216 30.1216 30.1216) with tilt (0 0 0)
Changing box ...
  triclinic box = (0 0 0) to (30.1216 30.1216 30.1216) with tilt (0.602432 0 0)
Neighbor list info ...
  update every 1 steps, delay 0 steps, check yes
  max neighbors/atom: 2000, page size: 100000
  master list distance cutoff = 7.5
  ghost atom cutoff = 7.5
  1 neighbor lists, perpetual/occasional/extra = 1 0 0
  (1) pair eam/fs, perpetual
      attributes: half, newton on
      pair build: half/nsq/newton
      stencil: none
      bin: none
Setting up Verlet run ...
  Unit style    : metal
  Current step  : 0
  Time step     : 0.001
Per MPI rank memory allocation (min/avg/max) = 6.051 | 6.051 | 6.051 Mbytes
Step Temp PotEng Press f_avp[1] f_avp[2] f_avp[3] f_avp[4] f_avp[5] f_avp[6] 
       0     1463.743   -4221.9699   -11694.333            0            0            0            0            0            0 
     100     1499.341   -4193.1115   -3367.6098   -6676.9335    -5429.585   -6211.7302   -10.846373    1107.5057    399.75748 
     200    1500.3893   -4168.3006    4455.8769    1374.9474   -756.24245    2467.3392    298.98495    620.93529    1751.4063 
     300    1454.4792   -4163.7165    7253.6244    7083.7259    5195.1862    8451.1827    1063.8113    529.13383     1291.655 
     400     1468.476    -4168.098    5643.3659     8209.715    7078.4027    6087.1063   -256.22839    373.67098    751.49409 
     500    1543.0243   -4173.6167    3841.3104    6015.1246    6051.0075    2369.5482    290.39607    220.36219    389.60251 
     600    1576.1035   -4170.5495     4093.759    4633.4715    4454.5881    1221.0475     419.8387    776.50034    16.568011 
     700    1518.0415   -4179.1089    1149.9031    1792.7177    2830.5331    513.97126   -214.47498    768.23711   -1124.4262 
     800    1543.0649   -4181.6992     1287.519    1029.9553     374.4401     679.1096    513.02536     238.8659   -453.63137 
     900    1515.7013    -4187.417    692.01572    1816.9361    1107.0085    1490.8738    673.39138     252.2023    245.59785 
    1000    1455.0933   -4180.1534    269.20123    1859.8833    1267.1498   -151.27461   -59.479359    590.45669    625.38189 
Loop time of 3.40791 on 1 procs for 1000 steps with 1372 atoms

Performance: 25.353 ns/day, 0.947 hours/ns, 293.435 timesteps/s
99.7% CPU use with 1 MPI tasks x 1 OpenMP threads

MPI task timing breakdown:
Section |  min time  |  avg time  |  max time  |%varavg| %total
---------------------------------------------------------------
Pair    | 2.1965     | 2.1965     | 2.1965     |   0.0 | 64.45
Bond    | 9.0392e-05 | 9.0392e-05 | 9.0392e-05 |   0.0 |  0.00
Neigh   | 1.1287     | 1.1287     | 1.1287     |   0.0 | 33.12
Comm    | 0.015195   | 0.015195   | 0.015195   |   0.0 |  0.45
Output  | 0.00019826 | 0.00019826 | 0.00019826 |   0.0 |  0.01
Modify  | 0.061509   | 0.061509   | 0.061509   |   0.0 |  1.80
Other   |            | 0.005768   |            |       |  0.17

Nlocal:    1372 ave 1372 max 1372 min
Histogram: 1 0 0 0 0 0 0 0 0 0
Nghost:    3281 ave 3281 max 3281 min
Histogram: 1 0 0 0 0 0 0 0 0 0
Neighs:    59852 ave 59852 max 59852 min
Histogram: 1 0 0 0 0 0 0 0 0 0

Total # of neighbors = 59852
Ave neighs/atom = 43.6239
Ave special neighs/atom = 0
Neighbor list builds = 39
Dangerous builds = 0
WARNING: New thermo_style command, previous thermo_modify settings will be lost (../output.cpp:705)
Setting up Verlet run ...
  Unit style    : metal
  Current step  : 0
  Time step     : 0.001
Per MPI rank memory allocation (min/avg/max) = 6.051 | 6.051 | 6.051 Mbytes
Step Temp PotEng Press f_avp[1] f_avp[2] f_avp[3] f_avp[4] f_avp[5] f_avp[6] 
       0    1455.0933   -4180.1534    269.20123            0            0            0            0            0            0 
     100    1507.0272   -4170.5401     2924.474    1305.9408    1623.1438    2535.3206    1054.5182    405.64858     2058.451 
     200    1510.8809   -4175.8767    4381.3864    3817.0658    2502.7915    2233.2667    820.94324    1492.8751    711.04308 
     300    1473.3363   -4178.5697    3736.8542    4171.7599    4902.3325    3956.1257    486.63073    436.01295     701.4288 
Loop time of 0.995692 on 1 procs for 300 steps with 1372 atoms

Performance: 26.032 ns/day, 0.922 hours/ns, 301.298 timesteps/s
99.5% CPU use with 1 MPI tasks x 1 OpenMP threads

MPI task timing breakdown:
Section |  min time  |  avg time  |  max time  |%varavg| %total
---------------------------------------------------------------
Pair    | 0.65464    | 0.65464    | 0.65464    |   0.0 | 65.75
Bond    | 3.1548e-05 | 3.1548e-05 | 3.1548e-05 |   0.0 |  0.00
Neigh   | 0.31671    | 0.31671    | 0.31671    |   0.0 | 31.81
Comm    | 0.00446    | 0.00446    | 0.00446    |   0.0 |  0.45
Output  | 5.9863e-05 | 5.9863e-05 | 5.9863e-05 |   0.0 |  0.01
Modify  | 0.01807    | 0.01807    | 0.01807    |   0.0 |  1.81
Other   |            | 0.001714   |            |       |  0.17

Nlocal:    1372 ave 1372 max 1372 min
Histogram: 1 0 0 0 0 0 0 0 0 0
Nghost:    3315 ave 3315 max 3315 min
Histogram: 1 0 0 0 0 0 0 0 0 0
Neighs:    60033 ave 60033 max 60033 min
Histogram: 1 0 0 0 0 0 0 0 0 0

Total # of neighbors = 60033
Ave neighs/atom = 43.7558
Ave special neighs/atom = 0
Neighbor list builds = 11
Dangerous builds = 0
=========================================
Components of the Elastic Constant Tensor
=========================================
Elastic Constant C11all=29.0065656805683
Elastic Constant C22all = 31.9784566742844 GPa
Elastic Constant C33all = 24.12134359499 GPa
Elastic Constant C12all=29.5372445362457
Elastic Constant C13all = 24.1769187517536 GPa
Elastic Constant C23all = 28.6816524478142 GPa
Elastic Constant C44all=2.45383317231179
Elastic Constant C55all = 0.20207170768861 GPa
Elastic Constant C66all = 1.88133575269234 GPa
Elastic Constant C14all = 2.28313076081161 GPa
Elastic Constant C15all = 0.8757003355635 GPa
Elastic Constant C16all = 1.31372046637131 GPa
Elastic Constant C24all = 2.90038420926596 GPa
Elastic Constant C25all = 1.03093541703407 GPa
Elastic Constant C26all = 4.19953084397543 GPa
Elastic Constant C34all = 0.702416868081126 GPa
Elastic Constant C35all = 0.267753950054416 GPa
Elastic Constant C36all = -0.0835207193003198 GPa
Elastic Constant C45all = 0.979048167096815 GPa
Elastic Constant C46all = 1.74072434336883 GPa
Elastic Constant C56all = 0.445575886133983 GPa
=========================================
Average properties for a cubic crystal
=========================================
Bulk Modulus=27.7664441579411
Shear Modulus 1=1.51241354423091
Shear Modulus 2=0.451758369004899
Poisson Ratio=0.491908910717604
Total wall time: 0:00:58
