LAMMPS (30 Apr 2019)
OMP_NUM_THREADS environment is not set. Defaulting to 1 thread. (../comm.cpp:88)
  using 1 OpenMP thread(s) per MPI task
# Compute elastic constant tensor for a crystal at finite temperature
#
# WARNING: This script attempts to measure small differences in
# statistical averages generated by finite temperature MD simulations.
# This creates many more opportunities for errors to occur, compared
# to the zero temperature version provided in examples/ELASTIC.
# Hence, it is always a good idea to start with the zero temperature
# calculation, before attempting to use this script.
#
# Written by Aidan Thompson (Sandia, athomps@sandia.gov)
#
#  This script uses the following three include files.
#
#   init.mod      (must be modified for different crystal structures)
# 	       	  Define units, MD parameters, deformation parameters,
#		  and initial configuration of the atoms and simulation cell.
#
#
#   potential.mod    (must be modified for different pair styles)
# 		     Define pair style and other attributes
#		     not stored in restart file
#
#
#   displace.mod    (displace.mod should not need to be modified)
# 		    Perform positive and negative box displacements
# 		    in direction ${dir} and size ${up}.
# 		    It uses the resultant changes
#		    in stress to compute one
# 		    row of the elastic stiffness tensor
#
#		    Inputs variables:
#		    	   dir = the Voigt deformation component
#		    		    (1,2,3,4,5,6)
#		    Global constants:
#       	    	   up = the deformation magnitude (strain units)
#       		   cfac = conversion from LAMMPS pressure units to
#               	   output units for elastic constants
#
#
#  To run this on a different system, it should only be necessary to
#  modify the files init.mod and potential.mod. In order to calculate
#  the elastic constants correctly, care must be taken to specify
#  the correct units in init.mod (units, cfac and cunits). It is also
#  important to verify that the MD sampling of stress components
#  is generating accurate statistical averages.
#  One indication of this is that the elastic constants are insensitive
#  to the choice of the variable ${up} in init.mod. Another is to
#  check for finite size effects.
#

include ./LAMMPS_scripts/Bulk_finite/init.mod
# NOTE: This script can be modified for different atomic structures,
# units, etc. See in.elastic for more info.
#

# Define the finite deformation size. Try several values of this
# variable to verify that results do not depend on it.
variable up equal 2.0e-2

# metal units, elastic constants in GPa
units		metal
variable cfac equal 1.0e-4
variable cunits string GPa

# Define MD parameters
variable nevery equal 10                  # sampling interval
variable nrepeat equal 10                 # number of samples
variable nfreq equal ${nevery}*${nrepeat} # length of one average
variable nfreq equal 10*${nrepeat} 
variable nfreq equal 10*10 
variable nthermo equal ${nfreq}           # interval for thermo output
variable nthermo equal 100           
variable nequil equal 10*${nthermo}       # length of equilibration run
variable nequil equal 10*100       
variable nrun equal 3*${nthermo}          # length of equilibrated run
variable nrun equal 3*100          
variable temp file temp.txt               # temperature of initial sample
variable timestep equal 0.001             # timestep
variable mass1 equal 26.981539            # mass
variable adiabatic equal 0                # adiabatic (1) or isothermal (2)
variable tdamp equal 0.01                 # time constant for thermostat
variable seed equal 123457                # seed for thermostat

# generate the box and atom positions using a fcc lattice
variable a equal 4.04525
dimension 3
boundary	p p p
atom_style full
variable latconst file lat_const.txt
variable stable_structure file stable.txt
lattice ${stable_structure} ${latconst}
lattice fcc ${latconst}
lattice fcc 4.30308844680016
Lattice spacing in x,y,z = 4.30309 4.30309 4.30309
region  box block 0 1 0 1 0 1 units lattice
create_box  1 box
Created orthogonal box = (0 0 0) to (4.30309 4.30309 4.30309)
  1 by 1 by 1 MPI processor grid
create_atoms 1 box
Created 4 atoms
  create_atoms CPU = 0.0011797 secs
replicate 7 7 7
  orthogonal box = (0 0 0) to (30.1216 30.1216 30.1216)
  1 by 1 by 1 MPI processor grid
  1372 atoms
  0 = max # of 1-2 neighbors
  0 = max # of 1-3 neighbors
  0 = max # of 1-4 neighbors
  1 = max # of special neighbors
  special bonds CPU = 0.000152866 secs
  replicate CPU = 0.000587117 secs



mass 1 ${mass1}
mass 1 26.981539
velocity	all create ${temp} 87287
velocity	all create 1522.33284759607 87287



# Compute initial state

variable thermostat equal 1
include ./LAMMPS_scripts/Bulk_finite/potential.mod
# NOTE: This script can be modified for different pair styles
# See in.elastic for more info.

reset_timestep 0

# Choose potential
variable pairstyle file pairsty.txt
pair_style ${pairstyle}
pair_style eam/fs
variable potential file potential.txt
variable type file type.txt
pair_coeff * * ${potential} ${type}
pair_coeff * * Al1.eam.fs ${type}
pair_coeff * * Al1.eam.fs Al

# Setup neighbor style
neighbor 1.0 nsq
neigh_modify once no every 1 delay 0 check yes

# Setup output

fix avp all ave/time  ${nevery} ${nrepeat} ${nfreq} c_thermo_press mode vector
fix avp all ave/time  10 ${nrepeat} ${nfreq} c_thermo_press mode vector
fix avp all ave/time  10 10 ${nfreq} c_thermo_press mode vector
fix avp all ave/time  10 10 100 c_thermo_press mode vector
thermo		${nthermo}
thermo		100
thermo_style custom step temp pe press f_avp[1] f_avp[2] f_avp[3] f_avp[4] f_avp[5] f_avp[6]
thermo_modify norm no

# Setup MD

timestep ${timestep}
timestep 0.001
fix 4 all nve
if "${thermostat} == 1" then    "fix 5 all langevin ${temp} ${temp} ${tdamp} ${seed}"
fix 5 all langevin ${temp} ${temp} ${tdamp} ${seed}
fix 5 all langevin 1522.33284759607 ${temp} ${tdamp} ${seed}
fix 5 all langevin 1522.33284759607 1522.33284759607 ${tdamp} ${seed}
fix 5 all langevin 1522.33284759607 1522.33284759607 0.01 ${seed}
fix 5 all langevin 1522.33284759607 1522.33284759607 0.01 123457


run ${nequil}
run 1000
Neighbor list info ...
  update every 1 steps, delay 0 steps, check yes
  max neighbors/atom: 2000, page size: 100000
  master list distance cutoff = 7.5
  ghost atom cutoff = 7.5
  1 neighbor lists, perpetual/occasional/extra = 1 0 0
  (1) pair eam/fs, perpetual
      attributes: half, newton on
      pair build: half/nsq/newton
      stencil: none
      bin: none
Per MPI rank memory allocation (min/avg/max) = 6.069 | 6.069 | 6.069 Mbytes
Step Temp PotEng Press f_avp[1] f_avp[2] f_avp[3] f_avp[4] f_avp[5] f_avp[6] 
       0    1522.3329   -4500.1857   -100696.48            0            0            0            0            0            0 
     100    1479.7022   -4332.7864   -45392.472   -63324.214   -64085.156   -63482.256   -13.742636   -261.08073    7.7842935 
     200    1507.8196   -4289.2079   -32646.662   -37040.375   -38092.574   -37362.915    25.945178    285.25803    1123.5323 
     300    1462.1764   -4274.2196   -27585.701    -28740.75   -30240.825   -28470.605    656.23566    1202.8616    930.08485 
     400    1462.9849   -4269.0209   -25665.118   -25894.205    -25883.12   -25889.134   -157.79886    153.64344    458.13851 
     500    1568.0979   -4257.4483   -21525.069   -23034.348    -22404.24   -23837.966    346.66018    427.83853   -615.62358 
     600    1592.4305   -4242.4226     -17194.1   -19096.281   -19377.948   -19753.598    6.0138826    549.37863   -502.41379 
     700    1531.2254   -4241.7028   -16826.054     -17031.5   -18073.224   -17606.273    190.71709    381.99287   -629.36588 
     800    1542.8834   -4236.2197   -15405.176   -15432.015   -18014.061   -16227.886    329.78067    376.54061    647.41584 
     900    1502.2674   -4236.2481   -15720.754   -14024.568   -17253.753   -16529.571    436.58644    125.33747   -176.63726 
    1000    1445.3056   -4227.1811   -13869.879   -13611.348    -15435.38   -14643.645    208.31672   -240.04164    343.06634 
Loop time of 3.18672 on 1 procs for 1000 steps with 1372 atoms

Performance: 27.113 ns/day, 0.885 hours/ns, 313.802 timesteps/s
99.6% CPU use with 1 MPI tasks x 1 OpenMP threads

MPI task timing breakdown:
Section |  min time  |  avg time  |  max time  |%varavg| %total
---------------------------------------------------------------
Pair    | 2.2473     | 2.2473     | 2.2473     |   0.0 | 70.52
Bond    | 0.00010553 | 0.00010553 | 0.00010553 |   0.0 |  0.00
Neigh   | 0.85704    | 0.85704    | 0.85704    |   0.0 | 26.89
Comm    | 0.014545   | 0.014545   | 0.014545   |   0.0 |  0.46
Output  | 0.00020037 | 0.00020037 | 0.00020037 |   0.0 |  0.01
Modify  | 0.061822   | 0.061822   | 0.061822   |   0.0 |  1.94
Other   |            | 0.005679   |            |       |  0.18

Nlocal:    1372 ave 1372 max 1372 min
Histogram: 1 0 0 0 0 0 0 0 0 0
Nghost:    3256 ave 3256 max 3256 min
Histogram: 1 0 0 0 0 0 0 0 0 0
Neighs:    59169 ave 59169 max 59169 min
Histogram: 1 0 0 0 0 0 0 0 0 0

Total # of neighbors = 59169
Ave neighs/atom = 43.1261
Ave special neighs/atom = 0
Neighbor list builds = 39
Dangerous builds = 0

if "${adiabatic} == 1" then "variable thermostat equal 0" else "variable thermostat equal 1"
variable thermostat equal 1

print ${thermostat}
print 1
1

include ./LAMMPS_scripts/Bulk_finite/potential.mod
# NOTE: This script can be modified for different pair styles
# See in.elastic for more info.

reset_timestep 0

# Choose potential
variable pairstyle file pairsty.txt
pair_style ${pairstyle}
pair_style eam/fs
variable potential file potential.txt
variable type file type.txt
pair_coeff * * ${potential} ${type}
pair_coeff * * Al1.eam.fs ${type}
pair_coeff * * Al1.eam.fs Al

# Setup neighbor style
neighbor 1.0 nsq
neigh_modify once no every 1 delay 0 check yes

# Setup output

fix avp all ave/time  ${nevery} ${nrepeat} ${nfreq} c_thermo_press mode vector
fix avp all ave/time  10 ${nrepeat} ${nfreq} c_thermo_press mode vector
fix avp all ave/time  10 10 ${nfreq} c_thermo_press mode vector
fix avp all ave/time  10 10 100 c_thermo_press mode vector
thermo		${nthermo}
thermo		100
thermo_style custom step temp pe press f_avp[1] f_avp[2] f_avp[3] f_avp[4] f_avp[5] f_avp[6]
WARNING: New thermo_style command, previous thermo_modify settings will be lost (../output.cpp:705)
thermo_modify norm no

# Setup MD

timestep ${timestep}
timestep 0.001
fix 4 all nve
if "${thermostat} == 1" then    "fix 5 all langevin ${temp} ${temp} ${tdamp} ${seed}"
fix 5 all langevin ${temp} ${temp} ${tdamp} ${seed}
fix 5 all langevin 1522.33284759607 ${temp} ${tdamp} ${seed}
fix 5 all langevin 1522.33284759607 1522.33284759607 ${tdamp} ${seed}
fix 5 all langevin 1522.33284759607 1522.33284759607 0.01 ${seed}
fix 5 all langevin 1522.33284759607 1522.33284759607 0.01 123457


run ${nrun}
run 300
Per MPI rank memory allocation (min/avg/max) = 6.069 | 6.069 | 6.069 Mbytes
Step Temp PotEng Press f_avp[1] f_avp[2] f_avp[3] f_avp[4] f_avp[5] f_avp[6] 
       0    1445.3056   -4227.1811   -13869.879            0            0            0            0            0            0 
     100    1497.9959   -4223.5052   -12326.394   -12243.702   -12956.992   -12958.114     1122.005    1248.2069    123.31874 
     200    1507.1049   -4215.0145    -9989.003   -10675.974   -12494.467   -10260.295    1918.3566    920.38767    44.505596 
     300     1463.743   -4221.8686   -11680.462    -10607.75   -10745.991   -8878.1416    2304.5752    602.54649    394.44398 
Loop time of 1.02222 on 1 procs for 300 steps with 1372 atoms

Performance: 25.357 ns/day, 0.946 hours/ns, 293.480 timesteps/s
99.6% CPU use with 1 MPI tasks x 1 OpenMP threads

MPI task timing breakdown:
Section |  min time  |  avg time  |  max time  |%varavg| %total
---------------------------------------------------------------
Pair    | 0.69046    | 0.69046    | 0.69046    |   0.0 | 67.54
Bond    | 3.1889e-05 | 3.1889e-05 | 3.1889e-05 |   0.0 |  0.00
Neigh   | 0.30722    | 0.30722    | 0.30722    |   0.0 | 30.05
Comm    | 0.0042596  | 0.0042596  | 0.0042596  |   0.0 |  0.42
Output  | 5.8458e-05 | 5.8458e-05 | 5.8458e-05 |   0.0 |  0.01
Modify  | 0.018508   | 0.018508   | 0.018508   |   0.0 |  1.81
Other   |            | 0.001684   |            |       |  0.16

Nlocal:    1372 ave 1372 max 1372 min
Histogram: 1 0 0 0 0 0 0 0 0 0
Nghost:    3255 ave 3255 max 3255 min
Histogram: 1 0 0 0 0 0 0 0 0 0
Neighs:    59289 ave 59289 max 59289 min
Histogram: 1 0 0 0 0 0 0 0 0 0

Total # of neighbors = 59289
Ave neighs/atom = 43.2136
Ave special neighs/atom = 0
Neighbor list builds = 11
Dangerous builds = 0

variable pxx0 equal f_avp[1]
variable pyy0 equal f_avp[2]
variable pzz0 equal f_avp[3]
variable pxy0 equal f_avp[4]
variable pxz0 equal f_avp[5]
variable pyz0 equal f_avp[6]

variable tmp equal lx
variable lx0 equal ${tmp}
variable lx0 equal 30.1216191276011
variable tmp equal ly
variable ly0 equal ${tmp}
variable ly0 equal 30.1216191276011
variable tmp equal lz
variable lz0 equal ${tmp}
variable lz0 equal 30.1216191276011

# These formulas define the derivatives w.r.t. strain components
# Constants uses $, variables use v_
variable d1 equal -(v_pxx1-${pxx0})/(v_delta/v_len0)*${cfac}
variable d1 equal -(v_pxx1--10607.7498407444)/(v_delta/v_len0)*${cfac}
variable d1 equal -(v_pxx1--10607.7498407444)/(v_delta/v_len0)*0.0001
variable d2 equal -(v_pyy1-${pyy0})/(v_delta/v_len0)*${cfac}
variable d2 equal -(v_pyy1--10745.9905937958)/(v_delta/v_len0)*${cfac}
variable d2 equal -(v_pyy1--10745.9905937958)/(v_delta/v_len0)*0.0001
variable d3 equal -(v_pzz1-${pzz0})/(v_delta/v_len0)*${cfac}
variable d3 equal -(v_pzz1--8878.14162419836)/(v_delta/v_len0)*${cfac}
variable d3 equal -(v_pzz1--8878.14162419836)/(v_delta/v_len0)*0.0001
variable d4 equal -(v_pyz1-${pyz0})/(v_delta/v_len0)*${cfac}
variable d4 equal -(v_pyz1-394.443980226565)/(v_delta/v_len0)*${cfac}
variable d4 equal -(v_pyz1-394.443980226565)/(v_delta/v_len0)*0.0001
variable d5 equal -(v_pxz1-${pxz0})/(v_delta/v_len0)*${cfac}
variable d5 equal -(v_pxz1-602.546490412096)/(v_delta/v_len0)*${cfac}
variable d5 equal -(v_pxz1-602.546490412096)/(v_delta/v_len0)*0.0001
variable d6 equal -(v_pxy1-${pxy0})/(v_delta/v_len0)*${cfac}
variable d6 equal -(v_pxy1-2304.57522779383)/(v_delta/v_len0)*${cfac}
variable d6 equal -(v_pxy1-2304.57522779383)/(v_delta/v_len0)*0.0001

# Write restart
write_restart ./Outputs/lammps_out/Bulk_finite/restart.equil

# uxx Perturbation

variable dir equal 1
include ./LAMMPS_scripts/Bulk_finite/displace.mod
# NOTE: This script should not need to be
# modified. See in.elastic for more info.
#
# Find which reference length to use

if "${dir} == 1" then    "variable len0 equal ${lx0}"
variable len0 equal ${lx0}
variable len0 equal 30.1216191276011
if "${dir} == 2" then    "variable len0 equal ${ly0}"
if "${dir} == 3" then    "variable len0 equal ${lz0}"
if "${dir} == 4" then    "variable len0 equal ${lz0}"
if "${dir} == 5" then    "variable len0 equal ${lz0}"
if "${dir} == 6" then    "variable len0 equal ${ly0}"

# Reset box and simulation parameters

clear
OMP_NUM_THREADS environment is not set. Defaulting to 1 thread. (../comm.cpp:88)
  using 1 OpenMP thread(s) per MPI task
box tilt large
read_restart ./Outputs/lammps_out/Bulk_finite/restart.equil
  restoring atom style full from restart
  orthogonal box = (0 0 0) to (30.1216 30.1216 30.1216)
  1 by 1 by 1 MPI processor grid
  pair style eam/fs stores no restart info
  1372 atoms
  0 = max # of 1-2 neighbors
  0 = max # of 1-3 neighbors
  0 = max # of 1-4 neighbors
  1 = max # of special neighbors
  special bonds CPU = 0.000131005 secs
  read_restart CPU = 0.000611728 secs
include ./LAMMPS_scripts/Bulk_finite/potential.mod
# NOTE: This script can be modified for different pair styles
# See in.elastic for more info.

reset_timestep 0

# Choose potential
variable pairstyle file pairsty.txt
pair_style ${pairstyle}
pair_style eam/fs
variable potential file potential.txt
variable type file type.txt
pair_coeff * * ${potential} ${type}
pair_coeff * * Al1.eam.fs ${type}
pair_coeff * * Al1.eam.fs Al

# Setup neighbor style
neighbor 1.0 nsq
neigh_modify once no every 1 delay 0 check yes

# Setup output

fix avp all ave/time  ${nevery} ${nrepeat} ${nfreq} c_thermo_press mode vector
fix avp all ave/time  10 ${nrepeat} ${nfreq} c_thermo_press mode vector
fix avp all ave/time  10 10 ${nfreq} c_thermo_press mode vector
fix avp all ave/time  10 10 100 c_thermo_press mode vector
thermo		${nthermo}
thermo		100
thermo_style custom step temp pe press f_avp[1] f_avp[2] f_avp[3] f_avp[4] f_avp[5] f_avp[6]
thermo_modify norm no

# Setup MD

timestep ${timestep}
timestep 0.001
fix 4 all nve
if "${thermostat} == 1" then    "fix 5 all langevin ${temp} ${temp} ${tdamp} ${seed}"
fix 5 all langevin ${temp} ${temp} ${tdamp} ${seed}
fix 5 all langevin 1522.33284759607 ${temp} ${tdamp} ${seed}
fix 5 all langevin 1522.33284759607 1522.33284759607 ${tdamp} ${seed}
fix 5 all langevin 1522.33284759607 1522.33284759607 0.01 ${seed}
fix 5 all langevin 1522.33284759607 1522.33284759607 0.01 123457



# Negative deformation

variable delta equal -${up}*${len0}
variable delta equal -0.02*${len0}
variable delta equal -0.02*30.1216191276011
variable deltaxy equal -${up}*xy
variable deltaxy equal -0.02*xy
variable deltaxz equal -${up}*xz
variable deltaxz equal -0.02*xz
variable deltayz equal -${up}*yz
variable deltayz equal -0.02*yz
change_box all triclinic
  triclinic box = (0 0 0) to (30.1216 30.1216 30.1216) with tilt (0 0 0)
if "${dir} == 1" then    "change_box all x delta 0 ${delta} xy delta ${deltaxy} xz delta ${deltaxz} remap units box"
change_box all x delta 0 ${delta} xy delta ${deltaxy} xz delta ${deltaxz} remap units box
change_box all x delta 0 -0.602432382552022 xy delta ${deltaxy} xz delta ${deltaxz} remap units box
change_box all x delta 0 -0.602432382552022 xy delta -0 xz delta ${deltaxz} remap units box
change_box all x delta 0 -0.602432382552022 xy delta -0 xz delta -0 remap units box
  triclinic box = (0 0 0) to (29.5192 30.1216 30.1216) with tilt (0 0 0)
  triclinic box = (0 0 0) to (29.5192 30.1216 30.1216) with tilt (0 0 0)
  triclinic box = (0 0 0) to (29.5192 30.1216 30.1216) with tilt (0 0 0)
if "${dir} == 2" then    "change_box all y delta 0 ${delta} yz delta ${deltayz} remap units box"
if "${dir} == 3" then    "change_box all z delta 0 ${delta} remap units box"
if "${dir} == 4" then    "change_box all yz delta ${delta} remap units box"
if "${dir} == 5" then    "change_box all xz delta ${delta} remap units box"
if "${dir} == 6" then    "change_box all xy delta ${delta} remap units box"

# Run MD

run ${nequil}
run 1000
Neighbor list info ...
  update every 1 steps, delay 0 steps, check yes
  max neighbors/atom: 2000, page size: 100000
  master list distance cutoff = 7.5
  ghost atom cutoff = 7.5
  1 neighbor lists, perpetual/occasional/extra = 1 0 0
  (1) pair eam/fs, perpetual
      attributes: half, newton on
      pair build: half/nsq/newton
      stencil: none
      bin: none
Per MPI rank memory allocation (min/avg/max) = 6.051 | 6.051 | 6.051 Mbytes
Step Temp PotEng Press f_avp[1] f_avp[2] f_avp[3] f_avp[4] f_avp[5] f_avp[6] 
       0     1463.743   -4227.5496   -1668.8085            0            0            0            0            0            0 
     100    1497.9435   -4205.8001    4484.3932     3705.905    2405.2165    1365.6033    2286.9172    1080.0982    329.17755 
     200    1500.8546   -4181.2479    11848.646    10058.739    6288.5241    9368.7612    1808.6463    599.61937    1711.4251 
     300    1454.4627   -4177.6643    13799.552    14397.657    11940.147    14876.293    1902.5746    449.61782    1293.9197 
     400    1468.1592   -4182.6525    11828.329    14805.158    13494.409    12223.752    255.14292    348.07224    700.06158 
     500    1543.4294   -4188.2749    10358.027    12544.105    12485.698    8382.7112    764.16057    68.071618     305.7245 
     600    1572.1795   -4185.1944     10574.27    11139.704    10810.454     7615.476    729.54269    524.04117   -161.64727 
     700    1516.4269    -4196.442    7139.9349    8205.2546    8715.9885     6696.465    322.93429    467.82131    -858.1885 
     800    1539.7938   -4197.3282    7617.2602    7324.2737    6232.4568    6866.5677    1032.3494    223.22265   -237.88894 
     900    1514.9174   -4204.7694    6330.9064     7897.196     7039.834    7585.8645    1099.6578    240.69227    432.39368 
    1000    1451.7447   -4195.6978    6477.3016     8051.843    7258.0719    5809.3526    596.76618    327.28415    1164.4559 
Loop time of 3.58301 on 1 procs for 1000 steps with 1372 atoms

Performance: 24.114 ns/day, 0.995 hours/ns, 279.095 timesteps/s
99.6% CPU use with 1 MPI tasks x 1 OpenMP threads

MPI task timing breakdown:
Section |  min time  |  avg time  |  max time  |%varavg| %total
---------------------------------------------------------------
Pair    | 2.3666     | 2.3666     | 2.3666     |   0.0 | 66.05
Bond    | 9.2729e-05 | 9.2729e-05 | 9.2729e-05 |   0.0 |  0.00
Neigh   | 1.1329     | 1.1329     | 1.1329     |   0.0 | 31.62
Comm    | 0.015278   | 0.015278   | 0.015278   |   0.0 |  0.43
Output  | 0.00021051 | 0.00021051 | 0.00021051 |   0.0 |  0.01
Modify  | 0.06219    | 0.06219    | 0.06219    |   0.0 |  1.74
Other   |            | 0.005677   |            |       |  0.16

Nlocal:    1372 ave 1372 max 1372 min
Histogram: 1 0 0 0 0 0 0 0 0 0
Nghost:    3291 ave 3291 max 3291 min
Histogram: 1 0 0 0 0 0 0 0 0 0
Neighs:    61045 ave 61045 max 61045 min
Histogram: 1 0 0 0 0 0 0 0 0 0

Total # of neighbors = 61045
Ave neighs/atom = 44.4934
Ave special neighs/atom = 0
Neighbor list builds = 39
Dangerous builds = 0
include ./LAMMPS_scripts/Bulk_finite/potential.mod
# NOTE: This script can be modified for different pair styles
# See in.elastic for more info.

reset_timestep 0

# Choose potential
variable pairstyle file pairsty.txt
pair_style ${pairstyle}
pair_style eam/fs
variable potential file potential.txt
variable type file type.txt
pair_coeff * * ${potential} ${type}
pair_coeff * * Al1.eam.fs ${type}
pair_coeff * * Al1.eam.fs Al

# Setup neighbor style
neighbor 1.0 nsq
neigh_modify once no every 1 delay 0 check yes

# Setup output

fix avp all ave/time  ${nevery} ${nrepeat} ${nfreq} c_thermo_press mode vector
fix avp all ave/time  10 ${nrepeat} ${nfreq} c_thermo_press mode vector
fix avp all ave/time  10 10 ${nfreq} c_thermo_press mode vector
fix avp all ave/time  10 10 100 c_thermo_press mode vector
thermo		${nthermo}
thermo		100
thermo_style custom step temp pe press f_avp[1] f_avp[2] f_avp[3] f_avp[4] f_avp[5] f_avp[6]
WARNING: New thermo_style command, previous thermo_modify settings will be lost (../output.cpp:705)
thermo_modify norm no

# Setup MD

timestep ${timestep}
timestep 0.001
fix 4 all nve
if "${thermostat} == 1" then    "fix 5 all langevin ${temp} ${temp} ${tdamp} ${seed}"
fix 5 all langevin ${temp} ${temp} ${tdamp} ${seed}
fix 5 all langevin 1522.33284759607 ${temp} ${tdamp} ${seed}
fix 5 all langevin 1522.33284759607 1522.33284759607 ${tdamp} ${seed}
fix 5 all langevin 1522.33284759607 1522.33284759607 0.01 ${seed}
fix 5 all langevin 1522.33284759607 1522.33284759607 0.01 123457


run ${nrun}
run 300
Per MPI rank memory allocation (min/avg/max) = 6.051 | 6.051 | 6.051 Mbytes
Step Temp PotEng Press f_avp[1] f_avp[2] f_avp[3] f_avp[4] f_avp[5] f_avp[6] 
       0    1451.7447   -4195.6978    6477.3016            0            0            0            0            0            0 
     100    1507.0876    -4188.082    8837.7871    6790.7085    7959.4588    8414.9756    1374.7476   -107.84613     2275.018 
     200    1513.0838   -4192.6227    10275.419    10040.279    8695.0934     7890.303    1361.0415    1165.0518    810.00039 
     300    1467.9534    -4190.688    10004.333    10308.499    10932.358    9015.3588    972.34923    139.26524     847.5932 
Loop time of 1.05609 on 1 procs for 300 steps with 1372 atoms

Performance: 24.543 ns/day, 0.978 hours/ns, 284.066 timesteps/s
99.6% CPU use with 1 MPI tasks x 1 OpenMP threads

MPI task timing breakdown:
Section |  min time  |  avg time  |  max time  |%varavg| %total
---------------------------------------------------------------
Pair    | 0.70983    | 0.70983    | 0.70983    |   0.0 | 67.21
Bond    | 2.8103e-05 | 2.8103e-05 | 2.8103e-05 |   0.0 |  0.00
Neigh   | 0.32159    | 0.32159    | 0.32159    |   0.0 | 30.45
Comm    | 0.0045346  | 0.0045346  | 0.0045346  |   0.0 |  0.43
Output  | 5.8496e-05 | 5.8496e-05 | 5.8496e-05 |   0.0 |  0.01
Modify  | 0.018311   | 0.018311   | 0.018311   |   0.0 |  1.73
Other   |            | 0.001738   |            |       |  0.16

Nlocal:    1372 ave 1372 max 1372 min
Histogram: 1 0 0 0 0 0 0 0 0 0
Nghost:    3343 ave 3343 max 3343 min
Histogram: 1 0 0 0 0 0 0 0 0 0
Neighs:    61249 ave 61249 max 61249 min
Histogram: 1 0 0 0 0 0 0 0 0 0

Total # of neighbors = 61249
Ave neighs/atom = 44.6421
Ave special neighs/atom = 0
Neighbor list builds = 11
Dangerous builds = 0

# Obtain new stress tensor

variable pxx1 equal f_avp[1]
variable pyy1 equal f_avp[2]
variable pzz1 equal f_avp[3]
variable pxy1 equal f_avp[4]
variable pxz1 equal f_avp[5]
variable pyz1 equal f_avp[6]

# Compute elastic constant from pressure tensor

variable C1neg equal ${d1}
variable C1neg equal 104.581243700849
variable C2neg equal ${d2}
variable C2neg equal 108.391741839718
variable C3neg equal ${d3}
variable C3neg equal 89.4675020037401
variable C4neg equal ${d4}
variable C4neg equal 2.26574610644037
variable C5neg equal ${d5}
variable C5neg equal -2.31640625993241
variable C6neg equal ${d6}
variable C6neg equal -6.66112999606904

# Reset box and simulation parameters

clear
OMP_NUM_THREADS environment is not set. Defaulting to 1 thread. (../comm.cpp:88)
  using 1 OpenMP thread(s) per MPI task
box tilt large
read_restart ./Outputs/lammps_out/Bulk_finite/restart.equil
  restoring atom style full from restart
  orthogonal box = (0 0 0) to (30.1216 30.1216 30.1216)
  1 by 1 by 1 MPI processor grid
  pair style eam/fs stores no restart info
  1372 atoms
  0 = max # of 1-2 neighbors
  0 = max # of 1-3 neighbors
  0 = max # of 1-4 neighbors
  1 = max # of special neighbors
  special bonds CPU = 0.000126697 secs
  read_restart CPU = 0.000651562 secs
include ./LAMMPS_scripts/Bulk_finite/potential.mod
# NOTE: This script can be modified for different pair styles
# See in.elastic for more info.

reset_timestep 0

# Choose potential
variable pairstyle file pairsty.txt
pair_style ${pairstyle}
pair_style eam/fs
variable potential file potential.txt
variable type file type.txt
pair_coeff * * ${potential} ${type}
pair_coeff * * Al1.eam.fs ${type}
pair_coeff * * Al1.eam.fs Al

# Setup neighbor style
neighbor 1.0 nsq
neigh_modify once no every 1 delay 0 check yes

# Setup output

fix avp all ave/time  ${nevery} ${nrepeat} ${nfreq} c_thermo_press mode vector
fix avp all ave/time  10 ${nrepeat} ${nfreq} c_thermo_press mode vector
fix avp all ave/time  10 10 ${nfreq} c_thermo_press mode vector
fix avp all ave/time  10 10 100 c_thermo_press mode vector
thermo		${nthermo}
thermo		100
thermo_style custom step temp pe press f_avp[1] f_avp[2] f_avp[3] f_avp[4] f_avp[5] f_avp[6]
thermo_modify norm no

# Setup MD

timestep ${timestep}
timestep 0.001
fix 4 all nve
if "${thermostat} == 1" then    "fix 5 all langevin ${temp} ${temp} ${tdamp} ${seed}"
fix 5 all langevin ${temp} ${temp} ${tdamp} ${seed}
fix 5 all langevin 1522.33284759607 ${temp} ${tdamp} ${seed}
fix 5 all langevin 1522.33284759607 1522.33284759607 ${tdamp} ${seed}
fix 5 all langevin 1522.33284759607 1522.33284759607 0.01 ${seed}
fix 5 all langevin 1522.33284759607 1522.33284759607 0.01 123457



# Positive deformation

variable delta equal ${up}*${len0}
variable delta equal 0.02*${len0}
variable delta equal 0.02*30.1216191276011
variable deltaxy equal ${up}*xy
variable deltaxy equal 0.02*xy
variable deltaxz equal ${up}*xz
variable deltaxz equal 0.02*xz
variable deltayz equal ${up}*yz
variable deltayz equal 0.02*yz
change_box all triclinic
  triclinic box = (0 0 0) to (30.1216 30.1216 30.1216) with tilt (0 0 0)
if "${dir} == 1" then    "change_box all x delta 0 ${delta} xy delta ${deltaxy} xz delta ${deltaxz} remap units box"
change_box all x delta 0 ${delta} xy delta ${deltaxy} xz delta ${deltaxz} remap units box
change_box all x delta 0 0.602432382552022 xy delta ${deltaxy} xz delta ${deltaxz} remap units box
change_box all x delta 0 0.602432382552022 xy delta 0 xz delta ${deltaxz} remap units box
change_box all x delta 0 0.602432382552022 xy delta 0 xz delta 0 remap units box
  triclinic box = (0 0 0) to (30.7241 30.1216 30.1216) with tilt (0 0 0)
  triclinic box = (0 0 0) to (30.7241 30.1216 30.1216) with tilt (0 0 0)
  triclinic box = (0 0 0) to (30.7241 30.1216 30.1216) with tilt (0 0 0)
if "${dir} == 2" then    "change_box all y delta 0 ${delta} yz delta ${deltayz} remap units box"
if "${dir} == 3" then    "change_box all z delta 0 ${delta} remap units box"
if "${dir} == 4" then    "change_box all yz delta ${delta} remap units box"
if "${dir} == 5" then    "change_box all xz delta ${delta} remap units box"
if "${dir} == 6" then    "change_box all xy delta ${delta} remap units box"

# Run MD

run ${nequil}
run 1000
Neighbor list info ...
  update every 1 steps, delay 0 steps, check yes
  max neighbors/atom: 2000, page size: 100000
  master list distance cutoff = 7.5
  ghost atom cutoff = 7.5
  1 neighbor lists, perpetual/occasional/extra = 1 0 0
  (1) pair eam/fs, perpetual
      attributes: half, newton on
      pair build: half/nsq/newton
      stencil: none
      bin: none
Per MPI rank memory allocation (min/avg/max) = 6.051 | 6.051 | 6.051 Mbytes
Step Temp PotEng Press f_avp[1] f_avp[2] f_avp[3] f_avp[4] f_avp[5] f_avp[6] 
       0     1463.743   -4212.2158   -20154.045            0            0            0            0            0            0 
     100    1499.2024   -4178.1183   -10085.942   -15822.668   -11996.594   -12688.838     2147.833    1103.7397    302.65686 
     200    1501.1971   -4153.7374    -1794.908   -6127.7254   -6690.1475   -3501.0501     1618.093    610.63696    1589.3766 
     300    1455.1219   -4148.2858    1681.6582    705.15897   -207.27371    2826.4967    1863.9145    487.41683    1169.6838 
     400    1471.7001   -4153.1703    148.39157    2388.8868    1804.5342    826.25899    333.28549    275.87216    784.67151 
     500    1543.7489   -4158.6869   -2055.2954    170.34389    620.65233   -2962.6265     894.9202    163.30815    434.08898 
     600    1579.4263   -4156.2246   -1499.6242   -1081.5448   -1002.4899   -4518.9978    985.25276      729.291     47.27272 
     700    1517.2043   -4161.8294   -4023.0031    -3715.061   -2425.8192   -5129.3363    208.89834    1088.7207   -1222.0141 
     800    1544.3411   -4164.1563   -3827.8014   -4011.3529    -4585.267   -4713.6238    831.32718    441.51926   -845.60923 
     900     1519.006    -4169.943   -4278.1272     -2981.42   -4038.1213   -3560.2276    799.37031    233.12464   -48.647221 
    1000    1456.3147   -4163.3027   -4790.8155   -3296.9152   -3720.6096   -5143.2225    387.44379     627.2728    326.96681 
Loop time of 3.40884 on 1 procs for 1000 steps with 1372 atoms

Performance: 25.346 ns/day, 0.947 hours/ns, 293.355 timesteps/s
99.7% CPU use with 1 MPI tasks x 1 OpenMP threads

MPI task timing breakdown:
Section |  min time  |  avg time  |  max time  |%varavg| %total
---------------------------------------------------------------
Pair    | 2.2464     | 2.2464     | 2.2464     |   0.0 | 65.90
Bond    | 8.1324e-05 | 8.1324e-05 | 8.1324e-05 |   0.0 |  0.00
Neigh   | 1.081      | 1.081      | 1.081      |   0.0 | 31.71
Comm    | 0.01493    | 0.01493    | 0.01493    |   0.0 |  0.44
Output  | 0.00020221 | 0.00020221 | 0.00020221 |   0.0 |  0.01
Modify  | 0.060463   | 0.060463   | 0.060463   |   0.0 |  1.77
Other   |            | 0.005698   |            |       |  0.17

Nlocal:    1372 ave 1372 max 1372 min
Histogram: 1 0 0 0 0 0 0 0 0 0
Nghost:    3268 ave 3268 max 3268 min
Histogram: 1 0 0 0 0 0 0 0 0 0
Neighs:    58651 ave 58651 max 58651 min
Histogram: 1 0 0 0 0 0 0 0 0 0

Total # of neighbors = 58651
Ave neighs/atom = 42.7485
Ave special neighs/atom = 0
Neighbor list builds = 38
Dangerous builds = 0
include ./LAMMPS_scripts/Bulk_finite/potential.mod
# NOTE: This script can be modified for different pair styles
# See in.elastic for more info.

reset_timestep 0

# Choose potential
variable pairstyle file pairsty.txt
pair_style ${pairstyle}
pair_style eam/fs
variable potential file potential.txt
variable type file type.txt
pair_coeff * * ${potential} ${type}
pair_coeff * * Al1.eam.fs ${type}
pair_coeff * * Al1.eam.fs Al

# Setup neighbor style
neighbor 1.0 nsq
neigh_modify once no every 1 delay 0 check yes

# Setup output

fix avp all ave/time  ${nevery} ${nrepeat} ${nfreq} c_thermo_press mode vector
fix avp all ave/time  10 ${nrepeat} ${nfreq} c_thermo_press mode vector
fix avp all ave/time  10 10 ${nfreq} c_thermo_press mode vector
fix avp all ave/time  10 10 100 c_thermo_press mode vector
thermo		${nthermo}
thermo		100
thermo_style custom step temp pe press f_avp[1] f_avp[2] f_avp[3] f_avp[4] f_avp[5] f_avp[6]
WARNING: New thermo_style command, previous thermo_modify settings will be lost (../output.cpp:705)
thermo_modify norm no

# Setup MD

timestep ${timestep}
timestep 0.001
fix 4 all nve
if "${thermostat} == 1" then    "fix 5 all langevin ${temp} ${temp} ${tdamp} ${seed}"
fix 5 all langevin ${temp} ${temp} ${tdamp} ${seed}
fix 5 all langevin 1522.33284759607 ${temp} ${tdamp} ${seed}
fix 5 all langevin 1522.33284759607 1522.33284759607 ${tdamp} ${seed}
fix 5 all langevin 1522.33284759607 1522.33284759607 0.01 ${seed}
fix 5 all langevin 1522.33284759607 1522.33284759607 0.01 123457


run ${nrun}
run 300
Per MPI rank memory allocation (min/avg/max) = 6.051 | 6.051 | 6.051 Mbytes
Step Temp PotEng Press f_avp[1] f_avp[2] f_avp[3] f_avp[4] f_avp[5] f_avp[6] 
       0    1456.3147   -4163.3027   -4790.8155            0            0            0            0            0            0 
     100    1507.2461   -4152.9784   -1815.6845   -3410.3338   -2936.3234   -2628.8821    1330.2718    657.07301    1914.3374 
     200    1511.9337   -4158.6412   -147.55381   -970.33187   -1769.1692   -2406.9486    1016.3175     1491.964    626.93311 
     300    1476.8326    -4165.287   -879.85874   -856.42401    456.51681    -272.7118    266.28763    770.49948    618.84841 
Loop time of 1.01558 on 1 procs for 300 steps with 1372 atoms

Performance: 25.522 ns/day, 0.940 hours/ns, 295.399 timesteps/s
99.6% CPU use with 1 MPI tasks x 1 OpenMP threads

MPI task timing breakdown:
Section |  min time  |  avg time  |  max time  |%varavg| %total
---------------------------------------------------------------
Pair    | 0.67631    | 0.67631    | 0.67631    |   0.0 | 66.59
Bond    | 2.6037e-05 | 2.6037e-05 | 2.6037e-05 |   0.0 |  0.00
Neigh   | 0.31501    | 0.31501    | 0.31501    |   0.0 | 31.02
Comm    | 0.00442    | 0.00442    | 0.00442    |   0.0 |  0.44
Output  | 5.8806e-05 | 5.8806e-05 | 5.8806e-05 |   0.0 |  0.01
Modify  | 0.018049   | 0.018049   | 0.018049   |   0.0 |  1.78
Other   |            | 0.001703   |            |       |  0.17

Nlocal:    1372 ave 1372 max 1372 min
Histogram: 1 0 0 0 0 0 0 0 0 0
Nghost:    3293 ave 3293 max 3293 min
Histogram: 1 0 0 0 0 0 0 0 0 0
Neighs:    58910 ave 58910 max 58910 min
Histogram: 1 0 0 0 0 0 0 0 0 0

Total # of neighbors = 58910
Ave neighs/atom = 42.9373
Ave special neighs/atom = 0
Neighbor list builds = 11
Dangerous builds = 0

# Obtain new stress tensor

variable tmp equal pe
variable e1 equal ${tmp}
variable e1 equal -4165.28696308608
variable tmp equal press
variable p1 equal ${tmp}
variable p1 equal -879.858735459852
variable tmp equal pxx
variable pxx1 equal ${tmp}
variable pxx1 equal -1294.12737280193
variable tmp equal pyy
variable pyy1 equal ${tmp}
variable pyy1 equal -1849.53276960163
variable tmp equal pzz
variable pzz1 equal ${tmp}
variable pzz1 equal 504.083936024017
variable tmp equal pxy
variable pxy1 equal ${tmp}
variable pxy1 equal -52.492520195219
variable tmp equal pxz
variable pxz1 equal ${tmp}
variable pxz1 equal 70.7308007314533
variable tmp equal pyz
variable pyz1 equal ${tmp}
variable pyz1 equal -193.386301963309

# Compute elastic constant from pressure tensor

variable C1pos equal ${d1}
variable C1pos equal -46.5681123397124
variable C2pos equal ${d2}
variable C2pos equal -44.4822891209708
variable C3pos equal ${d3}
variable C3pos equal -46.9111278011119
variable C4pos equal ${d4}
variable C4pos equal 2.93915141094937
variable C5pos equal ${d5}
variable C5pos equal 2.65907844840321
variable C6pos equal ${d6}
variable C6pos equal 11.7853387399452

# Combine positive and negative

variable C1${dir} equal 0.5*(${C1neg}+${C1pos})
variable C11 equal 0.5*(${C1neg}+${C1pos})
variable C11 equal 0.5*(104.581243700849+${C1pos})
variable C11 equal 0.5*(104.581243700849+-46.5681123397124)
variable C2${dir} equal 0.5*(${C2neg}+${C2pos})
variable C21 equal 0.5*(${C2neg}+${C2pos})
variable C21 equal 0.5*(108.391741839718+${C2pos})
variable C21 equal 0.5*(108.391741839718+-44.4822891209708)
variable C3${dir} equal 0.5*(${C3neg}+${C3pos})
variable C31 equal 0.5*(${C3neg}+${C3pos})
variable C31 equal 0.5*(89.4675020037401+${C3pos})
variable C31 equal 0.5*(89.4675020037401+-46.9111278011119)
variable C4${dir} equal 0.5*(${C4neg}+${C4pos})
variable C41 equal 0.5*(${C4neg}+${C4pos})
variable C41 equal 0.5*(2.26574610644037+${C4pos})
variable C41 equal 0.5*(2.26574610644037+2.93915141094937)
variable C5${dir} equal 0.5*(${C5neg}+${C5pos})
variable C51 equal 0.5*(${C5neg}+${C5pos})
variable C51 equal 0.5*(-2.31640625993241+${C5pos})
variable C51 equal 0.5*(-2.31640625993241+2.65907844840321)
variable C6${dir} equal 0.5*(${C6neg}+${C6pos})
variable C61 equal 0.5*(${C6neg}+${C6pos})
variable C61 equal 0.5*(-6.66112999606904+${C6pos})
variable C61 equal 0.5*(-6.66112999606904+11.7853387399452)

# Delete dir to make sure it is not reused

variable dir delete

# uyy Perturbation

variable dir equal 2
include ./LAMMPS_scripts/Bulk_finite/displace.mod
# NOTE: This script should not need to be
# modified. See in.elastic for more info.
#
# Find which reference length to use

if "${dir} == 1" then    "variable len0 equal ${lx0}"
if "${dir} == 2" then    "variable len0 equal ${ly0}"
variable len0 equal ${ly0}
variable len0 equal 30.1216191276011
if "${dir} == 3" then    "variable len0 equal ${lz0}"
if "${dir} == 4" then    "variable len0 equal ${lz0}"
if "${dir} == 5" then    "variable len0 equal ${lz0}"
if "${dir} == 6" then    "variable len0 equal ${ly0}"

# Reset box and simulation parameters

clear
OMP_NUM_THREADS environment is not set. Defaulting to 1 thread. (../comm.cpp:88)
  using 1 OpenMP thread(s) per MPI task
box tilt large
read_restart ./Outputs/lammps_out/Bulk_finite/restart.equil
  restoring atom style full from restart
  orthogonal box = (0 0 0) to (30.1216 30.1216 30.1216)
  1 by 1 by 1 MPI processor grid
  pair style eam/fs stores no restart info
  1372 atoms
  0 = max # of 1-2 neighbors
  0 = max # of 1-3 neighbors
  0 = max # of 1-4 neighbors
  1 = max # of special neighbors
  special bonds CPU = 0.000130565 secs
  read_restart CPU = 0.000711475 secs
include ./LAMMPS_scripts/Bulk_finite/potential.mod
# NOTE: This script can be modified for different pair styles
# See in.elastic for more info.

reset_timestep 0

# Choose potential
variable pairstyle file pairsty.txt
pair_style ${pairstyle}
pair_style eam/fs
variable potential file potential.txt
variable type file type.txt
pair_coeff * * ${potential} ${type}
pair_coeff * * Al1.eam.fs ${type}
pair_coeff * * Al1.eam.fs Al

# Setup neighbor style
neighbor 1.0 nsq
neigh_modify once no every 1 delay 0 check yes

# Setup output

fix avp all ave/time  ${nevery} ${nrepeat} ${nfreq} c_thermo_press mode vector
fix avp all ave/time  10 ${nrepeat} ${nfreq} c_thermo_press mode vector
fix avp all ave/time  10 10 ${nfreq} c_thermo_press mode vector
fix avp all ave/time  10 10 100 c_thermo_press mode vector
thermo		${nthermo}
thermo		100
thermo_style custom step temp pe press f_avp[1] f_avp[2] f_avp[3] f_avp[4] f_avp[5] f_avp[6]
thermo_modify norm no

# Setup MD

timestep ${timestep}
timestep 0.001
fix 4 all nve
if "${thermostat} == 1" then    "fix 5 all langevin ${temp} ${temp} ${tdamp} ${seed}"
fix 5 all langevin ${temp} ${temp} ${tdamp} ${seed}
fix 5 all langevin 1522.33284759607 ${temp} ${tdamp} ${seed}
fix 5 all langevin 1522.33284759607 1522.33284759607 ${tdamp} ${seed}
fix 5 all langevin 1522.33284759607 1522.33284759607 0.01 ${seed}
fix 5 all langevin 1522.33284759607 1522.33284759607 0.01 123457



# Negative deformation

variable delta equal -${up}*${len0}
variable delta equal -0.02*${len0}
variable delta equal -0.02*30.1216191276011
variable deltaxy equal -${up}*xy
variable deltaxy equal -0.02*xy
variable deltaxz equal -${up}*xz
variable deltaxz equal -0.02*xz
variable deltayz equal -${up}*yz
variable deltayz equal -0.02*yz
change_box all triclinic
  triclinic box = (0 0 0) to (30.1216 30.1216 30.1216) with tilt (0 0 0)
if "${dir} == 1" then    "change_box all x delta 0 ${delta} xy delta ${deltaxy} xz delta ${deltaxz} remap units box"
if "${dir} == 2" then    "change_box all y delta 0 ${delta} yz delta ${deltayz} remap units box"
change_box all y delta 0 ${delta} yz delta ${deltayz} remap units box
change_box all y delta 0 -0.602432382552022 yz delta ${deltayz} remap units box
change_box all y delta 0 -0.602432382552022 yz delta -0 remap units box
  triclinic box = (0 0 0) to (30.1216 29.5192 30.1216) with tilt (0 0 0)
  triclinic box = (0 0 0) to (30.1216 29.5192 30.1216) with tilt (0 0 0)
if "${dir} == 3" then    "change_box all z delta 0 ${delta} remap units box"
if "${dir} == 4" then    "change_box all yz delta ${delta} remap units box"
if "${dir} == 5" then    "change_box all xz delta ${delta} remap units box"
if "${dir} == 6" then    "change_box all xy delta ${delta} remap units box"

# Run MD

run ${nequil}
run 1000
Neighbor list info ...
  update every 1 steps, delay 0 steps, check yes
  max neighbors/atom: 2000, page size: 100000
  master list distance cutoff = 7.5
  ghost atom cutoff = 7.5
  1 neighbor lists, perpetual/occasional/extra = 1 0 0
  (1) pair eam/fs, perpetual
      attributes: half, newton on
      pair build: half/nsq/newton
      stencil: none
      bin: none
Per MPI rank memory allocation (min/avg/max) = 6.028 | 6.028 | 6.028 Mbytes
Step Temp PotEng Press f_avp[1] f_avp[2] f_avp[3] f_avp[4] f_avp[5] f_avp[6] 
       0     1463.743   -4227.2176   -1659.7017            0            0            0            0            0            0 
     100    1498.4637   -4205.3588    4573.7262     1002.054    5120.4441    1345.3163     2422.187      1024.63    385.11932 
     200    1500.9874   -4182.0111    11749.036    8416.1699    7852.9564    9350.6899    1794.8664    470.53308    1720.6749 
     300    1454.5231    -4177.995    13834.645    13559.482    12796.235    14938.282     1952.511    419.94767    1229.0478 
     400    1469.3202   -4183.1401    11994.947     14561.34    14021.761    12213.134    270.39771    471.91972    581.59127 
     500    1543.6373    -4188.708    10121.035    12347.999    12802.471    8189.9823    826.40558    223.28239    345.81225 
     600    1574.4008    -4185.982    10426.358    10776.025    10972.659    7404.7734    699.91934    613.92304   -206.17469 
     700    1516.5975   -4195.6222    7227.8318    7617.0804    9548.9319    6555.6796     193.6573    705.69532   -967.81544 
     800    1541.5738   -4197.2593    7561.9512    7136.4008    6808.8288    6621.0924    1105.0415    392.50597   -415.51824 
     900    1518.5049   -4204.8699     6523.633    7810.6817    7800.6033    7335.6539    1088.9096     182.1699    138.93377 
    1000    1451.0957   -4195.6998    6679.6182    8076.0045    7946.9894    5628.0074    721.70132    285.17001    654.01821 
Loop time of 3.5529 on 1 procs for 1000 steps with 1372 atoms

Performance: 24.318 ns/day, 0.987 hours/ns, 281.460 timesteps/s
99.7% CPU use with 1 MPI tasks x 1 OpenMP threads

MPI task timing breakdown:
Section |  min time  |  avg time  |  max time  |%varavg| %total
---------------------------------------------------------------
Pair    | 2.3543     | 2.3543     | 2.3543     |   0.0 | 66.26
Bond    | 8.3674e-05 | 8.3674e-05 | 8.3674e-05 |   0.0 |  0.00
Neigh   | 1.1168     | 1.1168     | 1.1168     |   0.0 | 31.43
Comm    | 0.015009   | 0.015009   | 0.015009   |   0.0 |  0.42
Output  | 0.00021012 | 0.00021012 | 0.00021012 |   0.0 |  0.01
Modify  | 0.060733   | 0.060733   | 0.060733   |   0.0 |  1.71
Other   |            | 0.005707   |            |       |  0.16

Nlocal:    1372 ave 1372 max 1372 min
Histogram: 1 0 0 0 0 0 0 0 0 0
Nghost:    3298 ave 3298 max 3298 min
Histogram: 1 0 0 0 0 0 0 0 0 0
Neighs:    61084 ave 61084 max 61084 min
Histogram: 1 0 0 0 0 0 0 0 0 0

Total # of neighbors = 61084
Ave neighs/atom = 44.5219
Ave special neighs/atom = 0
Neighbor list builds = 39
Dangerous builds = 0
include ./LAMMPS_scripts/Bulk_finite/potential.mod
# NOTE: This script can be modified for different pair styles
# See in.elastic for more info.

reset_timestep 0

# Choose potential
variable pairstyle file pairsty.txt
pair_style ${pairstyle}
pair_style eam/fs
variable potential file potential.txt
variable type file type.txt
pair_coeff * * ${potential} ${type}
pair_coeff * * Al1.eam.fs ${type}
pair_coeff * * Al1.eam.fs Al

# Setup neighbor style
neighbor 1.0 nsq
neigh_modify once no every 1 delay 0 check yes

# Setup output

fix avp all ave/time  ${nevery} ${nrepeat} ${nfreq} c_thermo_press mode vector
fix avp all ave/time  10 ${nrepeat} ${nfreq} c_thermo_press mode vector
fix avp all ave/time  10 10 ${nfreq} c_thermo_press mode vector
fix avp all ave/time  10 10 100 c_thermo_press mode vector
thermo		${nthermo}
thermo		100
thermo_style custom step temp pe press f_avp[1] f_avp[2] f_avp[3] f_avp[4] f_avp[5] f_avp[6]
WARNING: New thermo_style command, previous thermo_modify settings will be lost (../output.cpp:705)
thermo_modify norm no

# Setup MD

timestep ${timestep}
timestep 0.001
fix 4 all nve
if "${thermostat} == 1" then    "fix 5 all langevin ${temp} ${temp} ${tdamp} ${seed}"
fix 5 all langevin ${temp} ${temp} ${tdamp} ${seed}
fix 5 all langevin 1522.33284759607 ${temp} ${tdamp} ${seed}
fix 5 all langevin 1522.33284759607 1522.33284759607 ${tdamp} ${seed}
fix 5 all langevin 1522.33284759607 1522.33284759607 0.01 ${seed}
fix 5 all langevin 1522.33284759607 1522.33284759607 0.01 123457


run ${nrun}
run 300
Per MPI rank memory allocation (min/avg/max) = 6.053 | 6.053 | 6.053 Mbytes
Step Temp PotEng Press f_avp[1] f_avp[2] f_avp[3] f_avp[4] f_avp[5] f_avp[6] 
       0    1451.0957   -4195.6998    6679.6182            0            0            0            0            0            0 
     100    1510.4142   -4186.2866    9111.9758    6905.4161    8598.9057    8738.0752    1460.2787    204.16194    2204.0339 
     200    1509.1922    -4191.946    10692.616    10095.473    8717.6159    8269.9708    1536.4652    1245.5077    817.96954 
     300    1474.1915   -4192.7012    9926.0863    10109.973    11081.306    9982.0479    898.87646    146.56347     778.2555 
Loop time of 1.05828 on 1 procs for 300 steps with 1372 atoms

Performance: 24.493 ns/day, 0.980 hours/ns, 283.479 timesteps/s
99.7% CPU use with 1 MPI tasks x 1 OpenMP threads

MPI task timing breakdown:
Section |  min time  |  avg time  |  max time  |%varavg| %total
---------------------------------------------------------------
Pair    | 0.71067    | 0.71067    | 0.71067    |   0.0 | 67.15
Bond    | 2.4871e-05 | 2.4871e-05 | 2.4871e-05 |   0.0 |  0.00
Neigh   | 0.32319    | 0.32319    | 0.32319    |   0.0 | 30.54
Comm    | 0.0044317  | 0.0044317  | 0.0044317  |   0.0 |  0.42
Output  | 5.8144e-05 | 5.8144e-05 | 5.8144e-05 |   0.0 |  0.01
Modify  | 0.018197   | 0.018197   | 0.018197   |   0.0 |  1.72
Other   |            | 0.001704   |            |       |  0.16

Nlocal:    1372 ave 1372 max 1372 min
Histogram: 1 0 0 0 0 0 0 0 0 0
Nghost:    3332 ave 3332 max 3332 min
Histogram: 1 0 0 0 0 0 0 0 0 0
Neighs:    61272 ave 61272 max 61272 min
Histogram: 1 0 0 0 0 0 0 0 0 0

Total # of neighbors = 61272
Ave neighs/atom = 44.6589
Ave special neighs/atom = 0
Neighbor list builds = 11
Dangerous builds = 0

# Obtain new stress tensor

variable pxx1 equal f_avp[1]
variable pyy1 equal f_avp[2]
variable pzz1 equal f_avp[3]
variable pxy1 equal f_avp[4]
variable pxz1 equal f_avp[5]
variable pyz1 equal f_avp[6]

# Compute elastic constant from pressure tensor

variable C1neg equal ${d1}
variable C1neg equal 103.588616225834
variable C2neg equal ${d2}
variable C2neg equal 109.136482840052
variable C3neg equal ${d3}
variable C3neg equal 94.3009476343212
variable C4neg equal ${d4}
variable C4neg equal 1.91905759880577
variable C5neg equal ${d5}
variable C5neg equal -2.27991510863858
variable C6neg equal ${d6}
variable C6neg equal -7.02849384522096

# Reset box and simulation parameters

clear
OMP_NUM_THREADS environment is not set. Defaulting to 1 thread. (../comm.cpp:88)
  using 1 OpenMP thread(s) per MPI task
box tilt large
read_restart ./Outputs/lammps_out/Bulk_finite/restart.equil
  restoring atom style full from restart
  orthogonal box = (0 0 0) to (30.1216 30.1216 30.1216)
  1 by 1 by 1 MPI processor grid
  pair style eam/fs stores no restart info
  1372 atoms
  0 = max # of 1-2 neighbors
  0 = max # of 1-3 neighbors
  0 = max # of 1-4 neighbors
  1 = max # of special neighbors
  special bonds CPU = 0.000122319 secs
  read_restart CPU = 0.000588056 secs
include ./LAMMPS_scripts/Bulk_finite/potential.mod
# NOTE: This script can be modified for different pair styles
# See in.elastic for more info.

reset_timestep 0

# Choose potential
variable pairstyle file pairsty.txt
pair_style ${pairstyle}
pair_style eam/fs
variable potential file potential.txt
variable type file type.txt
pair_coeff * * ${potential} ${type}
pair_coeff * * Al1.eam.fs ${type}
pair_coeff * * Al1.eam.fs Al

# Setup neighbor style
neighbor 1.0 nsq
neigh_modify once no every 1 delay 0 check yes

# Setup output

fix avp all ave/time  ${nevery} ${nrepeat} ${nfreq} c_thermo_press mode vector
fix avp all ave/time  10 ${nrepeat} ${nfreq} c_thermo_press mode vector
fix avp all ave/time  10 10 ${nfreq} c_thermo_press mode vector
fix avp all ave/time  10 10 100 c_thermo_press mode vector
thermo		${nthermo}
thermo		100
thermo_style custom step temp pe press f_avp[1] f_avp[2] f_avp[3] f_avp[4] f_avp[5] f_avp[6]
thermo_modify norm no

# Setup MD

timestep ${timestep}
timestep 0.001
fix 4 all nve
if "${thermostat} == 1" then    "fix 5 all langevin ${temp} ${temp} ${tdamp} ${seed}"
fix 5 all langevin ${temp} ${temp} ${tdamp} ${seed}
fix 5 all langevin 1522.33284759607 ${temp} ${tdamp} ${seed}
fix 5 all langevin 1522.33284759607 1522.33284759607 ${tdamp} ${seed}
fix 5 all langevin 1522.33284759607 1522.33284759607 0.01 ${seed}
fix 5 all langevin 1522.33284759607 1522.33284759607 0.01 123457



# Positive deformation

variable delta equal ${up}*${len0}
variable delta equal 0.02*${len0}
variable delta equal 0.02*30.1216191276011
variable deltaxy equal ${up}*xy
variable deltaxy equal 0.02*xy
variable deltaxz equal ${up}*xz
variable deltaxz equal 0.02*xz
variable deltayz equal ${up}*yz
variable deltayz equal 0.02*yz
change_box all triclinic
  triclinic box = (0 0 0) to (30.1216 30.1216 30.1216) with tilt (0 0 0)
if "${dir} == 1" then    "change_box all x delta 0 ${delta} xy delta ${deltaxy} xz delta ${deltaxz} remap units box"
if "${dir} == 2" then    "change_box all y delta 0 ${delta} yz delta ${deltayz} remap units box"
change_box all y delta 0 ${delta} yz delta ${deltayz} remap units box
change_box all y delta 0 0.602432382552022 yz delta ${deltayz} remap units box
change_box all y delta 0 0.602432382552022 yz delta 0 remap units box
  triclinic box = (0 0 0) to (30.1216 30.7241 30.1216) with tilt (0 0 0)
  triclinic box = (0 0 0) to (30.1216 30.7241 30.1216) with tilt (0 0 0)
if "${dir} == 3" then    "change_box all z delta 0 ${delta} remap units box"
if "${dir} == 4" then    "change_box all yz delta ${delta} remap units box"
if "${dir} == 5" then    "change_box all xz delta ${delta} remap units box"
if "${dir} == 6" then    "change_box all xy delta ${delta} remap units box"

# Run MD

run ${nequil}
run 1000
Neighbor list info ...
  update every 1 steps, delay 0 steps, check yes
  max neighbors/atom: 2000, page size: 100000
  master list distance cutoff = 7.5
  ghost atom cutoff = 7.5
  1 neighbor lists, perpetual/occasional/extra = 1 0 0
  (1) pair eam/fs, perpetual
      attributes: half, newton on
      pair build: half/nsq/newton
      stencil: none
      bin: none
Per MPI rank memory allocation (min/avg/max) = 6.051 | 6.051 | 6.051 Mbytes
Step Temp PotEng Press f_avp[1] f_avp[2] f_avp[3] f_avp[4] f_avp[5] f_avp[6] 
       0     1463.743   -4212.5485   -20179.074            0            0            0            0            0            0 
     100    1498.5806   -4178.6239    -10130.27   -13342.169   -14439.886   -12686.671    2039.3922    1148.9435    254.20658 
     200    1501.2719   -4153.0332   -1666.3149   -4571.0243   -8101.9537   -3502.7491    1611.3435    743.96418    1547.4501 
     300    1455.0153   -4147.8719    1640.0881     1403.468   -924.73009    2724.7964     1796.358    518.19131    1248.0714 
     400    1470.8166   -4152.4042    88.707557     2645.583    1370.0674    845.17835    332.97507    201.73479    886.32953 
     500    1543.6837   -4158.2623   -1772.7741    383.23347    438.45831   -2717.6685    835.04531    74.048876    388.34707 
     600    1577.8196   -4155.6189   -1503.7982   -810.72726   -1122.5373   -4308.3775    929.69525    665.68206    133.14198 
     700     1518.591   -4162.3375   -4199.1084   -3010.7733   -3336.8703   -5006.3232      221.694    801.84963   -1089.4571 
     800    1542.9604   -4163.9514   -3844.6001   -3771.8586   -5276.2033   -4628.4154    706.37489    361.44152   -813.04573 
     900     1515.579   -4169.9865   -4236.9266   -2716.2644    -4581.271   -3278.8997    784.39674    283.89441    30.430235 
    1000    1457.2893   -4163.6932   -4729.2794   -2962.6299   -4128.4068   -5054.8931    320.95957    643.26296    612.25573 
Loop time of 3.43145 on 1 procs for 1000 steps with 1372 atoms

Performance: 25.179 ns/day, 0.953 hours/ns, 291.422 timesteps/s
99.7% CPU use with 1 MPI tasks x 1 OpenMP threads

MPI task timing breakdown:
Section |  min time  |  avg time  |  max time  |%varavg| %total
---------------------------------------------------------------
Pair    | 2.2437     | 2.2437     | 2.2437     |   0.0 | 65.39
Bond    | 8.2802e-05 | 8.2802e-05 | 8.2802e-05 |   0.0 |  0.00
Neigh   | 1.1062     | 1.1062     | 1.1062     |   0.0 | 32.24
Comm    | 0.014905   | 0.014905   | 0.014905   |   0.0 |  0.43
Output  | 0.00020071 | 0.00020071 | 0.00020071 |   0.0 |  0.01
Modify  | 0.060606   | 0.060606   | 0.060606   |   0.0 |  1.77
Other   |            | 0.005774   |            |       |  0.17

Nlocal:    1372 ave 1372 max 1372 min
Histogram: 1 0 0 0 0 0 0 0 0 0
Nghost:    3250 ave 3250 max 3250 min
Histogram: 1 0 0 0 0 0 0 0 0 0
Neighs:    58612 ave 58612 max 58612 min
Histogram: 1 0 0 0 0 0 0 0 0 0

Total # of neighbors = 58612
Ave neighs/atom = 42.7201
Ave special neighs/atom = 0
Neighbor list builds = 39
Dangerous builds = 0
include ./LAMMPS_scripts/Bulk_finite/potential.mod
# NOTE: This script can be modified for different pair styles
# See in.elastic for more info.

reset_timestep 0

# Choose potential
variable pairstyle file pairsty.txt
pair_style ${pairstyle}
pair_style eam/fs
variable potential file potential.txt
variable type file type.txt
pair_coeff * * ${potential} ${type}
pair_coeff * * Al1.eam.fs ${type}
pair_coeff * * Al1.eam.fs Al

# Setup neighbor style
neighbor 1.0 nsq
neigh_modify once no every 1 delay 0 check yes

# Setup output

fix avp all ave/time  ${nevery} ${nrepeat} ${nfreq} c_thermo_press mode vector
fix avp all ave/time  10 ${nrepeat} ${nfreq} c_thermo_press mode vector
fix avp all ave/time  10 10 ${nfreq} c_thermo_press mode vector
fix avp all ave/time  10 10 100 c_thermo_press mode vector
thermo		${nthermo}
thermo		100
thermo_style custom step temp pe press f_avp[1] f_avp[2] f_avp[3] f_avp[4] f_avp[5] f_avp[6]
WARNING: New thermo_style command, previous thermo_modify settings will be lost (../output.cpp:705)
thermo_modify norm no

# Setup MD

timestep ${timestep}
timestep 0.001
fix 4 all nve
if "${thermostat} == 1" then    "fix 5 all langevin ${temp} ${temp} ${tdamp} ${seed}"
fix 5 all langevin ${temp} ${temp} ${tdamp} ${seed}
fix 5 all langevin 1522.33284759607 ${temp} ${tdamp} ${seed}
fix 5 all langevin 1522.33284759607 1522.33284759607 ${tdamp} ${seed}
fix 5 all langevin 1522.33284759607 1522.33284759607 0.01 ${seed}
fix 5 all langevin 1522.33284759607 1522.33284759607 0.01 123457


run ${nrun}
run 300
Per MPI rank memory allocation (min/avg/max) = 6.051 | 6.051 | 6.051 Mbytes
Step Temp PotEng Press f_avp[1] f_avp[2] f_avp[3] f_avp[4] f_avp[5] f_avp[6] 
       0    1457.2893   -4163.6932   -4729.2794            0            0            0            0            0            0 
     100     1505.992   -4154.5824   -1907.3881   -3257.3914   -3428.0922   -2723.6125    1129.2074    337.62614     1922.715 
     200     1512.422   -4159.3027   -403.63346   -818.84821    -1945.232   -2536.5008    900.20819    1313.8012    759.48508 
     300    1471.6091   -4163.6097   -1006.6096   -518.90928     216.4728   -931.65502    272.17336    671.69977    886.60298 
Loop time of 1.01748 on 1 procs for 300 steps with 1372 atoms

Performance: 25.475 ns/day, 0.942 hours/ns, 294.847 timesteps/s
99.6% CPU use with 1 MPI tasks x 1 OpenMP threads

MPI task timing breakdown:
Section |  min time  |  avg time  |  max time  |%varavg| %total
---------------------------------------------------------------
Pair    | 0.67801    | 0.67801    | 0.67801    |   0.0 | 66.64
Bond    | 2.5609e-05 | 2.5609e-05 | 2.5609e-05 |   0.0 |  0.00
Neigh   | 0.31523    | 0.31523    | 0.31523    |   0.0 | 30.98
Comm    | 0.0043612  | 0.0043612  | 0.0043612  |   0.0 |  0.43
Output  | 5.7442e-05 | 5.7442e-05 | 5.7442e-05 |   0.0 |  0.01
Modify  | 0.018065   | 0.018065   | 0.018065   |   0.0 |  1.78
Other   |            | 0.001728   |            |       |  0.17

Nlocal:    1372 ave 1372 max 1372 min
Histogram: 1 0 0 0 0 0 0 0 0 0
Nghost:    3287 ave 3287 max 3287 min
Histogram: 1 0 0 0 0 0 0 0 0 0
Neighs:    58802 ave 58802 max 58802 min
Histogram: 1 0 0 0 0 0 0 0 0 0

Total # of neighbors = 58802
Ave neighs/atom = 42.8586
Ave special neighs/atom = 0
Neighbor list builds = 11
Dangerous builds = 0

# Obtain new stress tensor

variable tmp equal pe
variable e1 equal ${tmp}
variable e1 equal -4163.60968988767
variable tmp equal press
variable p1 equal ${tmp}
variable p1 equal -1006.60964825925
variable tmp equal pxx
variable pxx1 equal ${tmp}
variable pxx1 equal -737.931680824709
variable tmp equal pyy
variable pyy1 equal ${tmp}
variable pyy1 equal -1710.07669549916
variable tmp equal pzz
variable pzz1 equal ${tmp}
variable pzz1 equal -571.820568453899
variable tmp equal pxy
variable pxy1 equal ${tmp}
variable pxy1 equal 25.6938467591679
variable tmp equal pxz
variable pxz1 equal ${tmp}
variable pxz1 equal 642.183293232084
variable tmp equal pyz
variable pyz1 equal ${tmp}
variable pyz1 equal 132.166376256993

# Compute elastic constant from pressure tensor

variable C1pos equal ${d1}
variable C1pos equal -49.3490907995985
variable C2pos equal ${d2}
variable C2pos equal -45.1795694914832
variable C3pos equal ${d3}
variable C3pos equal -41.5316052787223
variable C4pos equal ${d4}
variable C4pos equal 1.31138801984786
variable C5pos equal ${d5}
variable C5pos equal -0.19818401409994
variable C6pos equal ${d6}
variable C6pos equal 11.3944069051733

# Combine positive and negative

variable C1${dir} equal 0.5*(${C1neg}+${C1pos})
variable C12 equal 0.5*(${C1neg}+${C1pos})
variable C12 equal 0.5*(103.588616225834+${C1pos})
variable C12 equal 0.5*(103.588616225834+-49.3490907995985)
variable C2${dir} equal 0.5*(${C2neg}+${C2pos})
variable C22 equal 0.5*(${C2neg}+${C2pos})
variable C22 equal 0.5*(109.136482840052+${C2pos})
variable C22 equal 0.5*(109.136482840052+-45.1795694914832)
variable C3${dir} equal 0.5*(${C3neg}+${C3pos})
variable C32 equal 0.5*(${C3neg}+${C3pos})
variable C32 equal 0.5*(94.3009476343212+${C3pos})
variable C32 equal 0.5*(94.3009476343212+-41.5316052787223)
variable C4${dir} equal 0.5*(${C4neg}+${C4pos})
variable C42 equal 0.5*(${C4neg}+${C4pos})
variable C42 equal 0.5*(1.91905759880577+${C4pos})
variable C42 equal 0.5*(1.91905759880577+1.31138801984786)
variable C5${dir} equal 0.5*(${C5neg}+${C5pos})
variable C52 equal 0.5*(${C5neg}+${C5pos})
variable C52 equal 0.5*(-2.27991510863858+${C5pos})
variable C52 equal 0.5*(-2.27991510863858+-0.19818401409994)
variable C6${dir} equal 0.5*(${C6neg}+${C6pos})
variable C62 equal 0.5*(${C6neg}+${C6pos})
variable C62 equal 0.5*(-7.02849384522096+${C6pos})
variable C62 equal 0.5*(-7.02849384522096+11.3944069051733)

# Delete dir to make sure it is not reused

variable dir delete

# uzz Perturbation

variable dir equal 3
include ./LAMMPS_scripts/Bulk_finite/displace.mod
# NOTE: This script should not need to be
# modified. See in.elastic for more info.
#
# Find which reference length to use

if "${dir} == 1" then    "variable len0 equal ${lx0}"
if "${dir} == 2" then    "variable len0 equal ${ly0}"
if "${dir} == 3" then    "variable len0 equal ${lz0}"
variable len0 equal ${lz0}
variable len0 equal 30.1216191276011
if "${dir} == 4" then    "variable len0 equal ${lz0}"
if "${dir} == 5" then    "variable len0 equal ${lz0}"
if "${dir} == 6" then    "variable len0 equal ${ly0}"

# Reset box and simulation parameters

clear
OMP_NUM_THREADS environment is not set. Defaulting to 1 thread. (../comm.cpp:88)
  using 1 OpenMP thread(s) per MPI task
box tilt large
read_restart ./Outputs/lammps_out/Bulk_finite/restart.equil
  restoring atom style full from restart
  orthogonal box = (0 0 0) to (30.1216 30.1216 30.1216)
  1 by 1 by 1 MPI processor grid
  pair style eam/fs stores no restart info
  1372 atoms
  0 = max # of 1-2 neighbors
  0 = max # of 1-3 neighbors
  0 = max # of 1-4 neighbors
  1 = max # of special neighbors
  special bonds CPU = 0.000129277 secs
  read_restart CPU = 0.000728938 secs
include ./LAMMPS_scripts/Bulk_finite/potential.mod
# NOTE: This script can be modified for different pair styles
# See in.elastic for more info.

reset_timestep 0

# Choose potential
variable pairstyle file pairsty.txt
pair_style ${pairstyle}
pair_style eam/fs
variable potential file potential.txt
variable type file type.txt
pair_coeff * * ${potential} ${type}
pair_coeff * * Al1.eam.fs ${type}
pair_coeff * * Al1.eam.fs Al

# Setup neighbor style
neighbor 1.0 nsq
neigh_modify once no every 1 delay 0 check yes

# Setup output

fix avp all ave/time  ${nevery} ${nrepeat} ${nfreq} c_thermo_press mode vector
fix avp all ave/time  10 ${nrepeat} ${nfreq} c_thermo_press mode vector
fix avp all ave/time  10 10 ${nfreq} c_thermo_press mode vector
fix avp all ave/time  10 10 100 c_thermo_press mode vector
thermo		${nthermo}
thermo		100
thermo_style custom step temp pe press f_avp[1] f_avp[2] f_avp[3] f_avp[4] f_avp[5] f_avp[6]
thermo_modify norm no

# Setup MD

timestep ${timestep}
timestep 0.001
fix 4 all nve
if "${thermostat} == 1" then    "fix 5 all langevin ${temp} ${temp} ${tdamp} ${seed}"
fix 5 all langevin ${temp} ${temp} ${tdamp} ${seed}
fix 5 all langevin 1522.33284759607 ${temp} ${tdamp} ${seed}
fix 5 all langevin 1522.33284759607 1522.33284759607 ${tdamp} ${seed}
fix 5 all langevin 1522.33284759607 1522.33284759607 0.01 ${seed}
fix 5 all langevin 1522.33284759607 1522.33284759607 0.01 123457



# Negative deformation

variable delta equal -${up}*${len0}
variable delta equal -0.02*${len0}
variable delta equal -0.02*30.1216191276011
variable deltaxy equal -${up}*xy
variable deltaxy equal -0.02*xy
variable deltaxz equal -${up}*xz
variable deltaxz equal -0.02*xz
variable deltayz equal -${up}*yz
variable deltayz equal -0.02*yz
change_box all triclinic
  triclinic box = (0 0 0) to (30.1216 30.1216 30.1216) with tilt (0 0 0)
if "${dir} == 1" then    "change_box all x delta 0 ${delta} xy delta ${deltaxy} xz delta ${deltaxz} remap units box"
if "${dir} == 2" then    "change_box all y delta 0 ${delta} yz delta ${deltayz} remap units box"
if "${dir} == 3" then    "change_box all z delta 0 ${delta} remap units box"
change_box all z delta 0 ${delta} remap units box
change_box all z delta 0 -0.602432382552022 remap units box
  triclinic box = (0 0 0) to (30.1216 30.1216 29.5192) with tilt (0 0 0)
if "${dir} == 4" then    "change_box all yz delta ${delta} remap units box"
if "${dir} == 5" then    "change_box all xz delta ${delta} remap units box"
if "${dir} == 6" then    "change_box all xy delta ${delta} remap units box"

# Run MD

run ${nequil}
run 1000
Neighbor list info ...
  update every 1 steps, delay 0 steps, check yes
  max neighbors/atom: 2000, page size: 100000
  master list distance cutoff = 7.5
  ghost atom cutoff = 7.5
  1 neighbor lists, perpetual/occasional/extra = 1 0 0
  (1) pair eam/fs, perpetual
      attributes: half, newton on
      pair build: half/nsq/newton
      stencil: none
      bin: none
Per MPI rank memory allocation (min/avg/max) = 6.052 | 6.052 | 6.052 Mbytes
Step Temp PotEng Press f_avp[1] f_avp[2] f_avp[3] f_avp[4] f_avp[5] f_avp[6] 
       0     1463.743    -4226.796   -1514.2963            0            0            0            0            0            0 
     100    1496.5648   -4205.8237    4493.9159    820.15052    2266.7389    4313.2867    2283.7877     1104.148    309.90517 
     200    1501.4051   -4181.6877    11677.847    8345.5274    6155.8147    10935.219    1726.3361    698.90091    1708.0279 
     300    1454.1196   -4177.5845    13757.415    13460.654    11819.814    15820.097    1887.0367     533.9647      1220.43 
     400    1468.5165   -4183.3544    11952.758    14423.126    13496.968    12899.538    209.74342    445.18662    662.69132 
     500    1543.5848   -4189.0186    10124.077     12052.62    12151.781    8766.9027    694.63749    181.07947    256.00152 
     600    1573.9543   -4186.1571    10420.784    10663.938    10307.399    7914.6744    688.74155    568.19386   -206.05386 
     700    1515.3251   -4195.5417    7403.1476     7919.701    8682.5911    7153.8127    127.74463    692.10283   -963.60074 
     800    1539.6455   -4197.1176     7731.251    7152.4974    6513.8035     7105.061    860.69579    414.38588   -422.27343 
     900    1513.2704   -4203.5764    6647.1316    7638.7337    7302.5388    7935.9123    977.45161    213.27166    180.76586 
    1000    1450.9218   -4195.6715    6553.4141    7878.0818    7703.7128    6631.6975    632.84685    307.85802    806.07769 
Loop time of 3.50782 on 1 procs for 1000 steps with 1372 atoms

Performance: 24.631 ns/day, 0.974 hours/ns, 285.077 timesteps/s
99.6% CPU use with 1 MPI tasks x 1 OpenMP threads

MPI task timing breakdown:
Section |  min time  |  avg time  |  max time  |%varavg| %total
---------------------------------------------------------------
Pair    | 2.3392     | 2.3392     | 2.3392     |   0.0 | 66.68
Bond    | 8.3351e-05 | 8.3351e-05 | 8.3351e-05 |   0.0 |  0.00
Neigh   | 1.0873     | 1.0873     | 1.0873     |   0.0 | 31.00
Comm    | 0.014922   | 0.014922   | 0.014922   |   0.0 |  0.43
Output  | 0.0002091  | 0.0002091  | 0.0002091  |   0.0 |  0.01
Modify  | 0.060448   | 0.060448   | 0.060448   |   0.0 |  1.72
Other   |            | 0.005663   |            |       |  0.16

Nlocal:    1372 ave 1372 max 1372 min
Histogram: 1 0 0 0 0 0 0 0 0 0
Nghost:    3296 ave 3296 max 3296 min
Histogram: 1 0 0 0 0 0 0 0 0 0
Neighs:    61061 ave 61061 max 61061 min
Histogram: 1 0 0 0 0 0 0 0 0 0

Total # of neighbors = 61061
Ave neighs/atom = 44.5051
Ave special neighs/atom = 0
Neighbor list builds = 38
Dangerous builds = 0
include ./LAMMPS_scripts/Bulk_finite/potential.mod
# NOTE: This script can be modified for different pair styles
# See in.elastic for more info.

reset_timestep 0

# Choose potential
variable pairstyle file pairsty.txt
pair_style ${pairstyle}
pair_style eam/fs
variable potential file potential.txt
variable type file type.txt
pair_coeff * * ${potential} ${type}
pair_coeff * * Al1.eam.fs ${type}
pair_coeff * * Al1.eam.fs Al

# Setup neighbor style
neighbor 1.0 nsq
neigh_modify once no every 1 delay 0 check yes

# Setup output

fix avp all ave/time  ${nevery} ${nrepeat} ${nfreq} c_thermo_press mode vector
fix avp all ave/time  10 ${nrepeat} ${nfreq} c_thermo_press mode vector
fix avp all ave/time  10 10 ${nfreq} c_thermo_press mode vector
fix avp all ave/time  10 10 100 c_thermo_press mode vector
thermo		${nthermo}
thermo		100
thermo_style custom step temp pe press f_avp[1] f_avp[2] f_avp[3] f_avp[4] f_avp[5] f_avp[6]
WARNING: New thermo_style command, previous thermo_modify settings will be lost (../output.cpp:705)
thermo_modify norm no

# Setup MD

timestep ${timestep}
timestep 0.001
fix 4 all nve
if "${thermostat} == 1" then    "fix 5 all langevin ${temp} ${temp} ${tdamp} ${seed}"
fix 5 all langevin ${temp} ${temp} ${tdamp} ${seed}
fix 5 all langevin 1522.33284759607 ${temp} ${tdamp} ${seed}
fix 5 all langevin 1522.33284759607 1522.33284759607 ${tdamp} ${seed}
fix 5 all langevin 1522.33284759607 1522.33284759607 0.01 ${seed}
fix 5 all langevin 1522.33284759607 1522.33284759607 0.01 123457


run ${nrun}
run 300
Per MPI rank memory allocation (min/avg/max) = 6.052 | 6.052 | 6.052 Mbytes
Step Temp PotEng Press f_avp[1] f_avp[2] f_avp[3] f_avp[4] f_avp[5] f_avp[6] 
       0    1450.9218   -4195.6715    6553.4141            0            0            0            0            0            0 
     100    1507.1225   -4187.3905    8829.1483    6995.8542    8072.8977    8444.3804    1667.7738    290.50921    2490.4266 
     200    1510.2208   -4191.7064    10234.701    9563.8442    8334.3738    7852.9746    1155.4734    1263.0324    954.72149 
     300    1472.8173   -4192.8633    9708.2428    9997.3208    10817.985    9268.7349    783.30095    343.65478    713.27887 
Loop time of 1.04072 on 1 procs for 300 steps with 1372 atoms

Performance: 24.906 ns/day, 0.964 hours/ns, 288.263 timesteps/s
99.7% CPU use with 1 MPI tasks x 1 OpenMP threads

MPI task timing breakdown:
Section |  min time  |  avg time  |  max time  |%varavg| %total
---------------------------------------------------------------
Pair    | 0.698      | 0.698      | 0.698      |   0.0 | 67.07
Bond    | 2.6242e-05 | 2.6242e-05 | 2.6242e-05 |   0.0 |  0.00
Neigh   | 0.31856    | 0.31856    | 0.31856    |   0.0 | 30.61
Comm    | 0.0044924  | 0.0044924  | 0.0044924  |   0.0 |  0.43
Output  | 5.7855e-05 | 5.7855e-05 | 5.7855e-05 |   0.0 |  0.01
Modify  | 0.017926   | 0.017926   | 0.017926   |   0.0 |  1.72
Other   |            | 0.001654   |            |       |  0.16

Nlocal:    1372 ave 1372 max 1372 min
Histogram: 1 0 0 0 0 0 0 0 0 0
Nghost:    3340 ave 3340 max 3340 min
Histogram: 1 0 0 0 0 0 0 0 0 0
Neighs:    61209 ave 61209 max 61209 min
Histogram: 1 0 0 0 0 0 0 0 0 0

Total # of neighbors = 61209
Ave neighs/atom = 44.613
Ave special neighs/atom = 0
Neighbor list builds = 11
Dangerous builds = 0

# Obtain new stress tensor

variable pxx1 equal f_avp[1]
variable pyy1 equal f_avp[2]
variable pzz1 equal f_avp[3]
variable pxy1 equal f_avp[4]
variable pxz1 equal f_avp[5]
variable pyz1 equal f_avp[6]

# Compute elastic constant from pressure tensor

variable C1neg equal ${d1}
variable C1neg equal 103.025353299845
variable C2neg equal ${d2}
variable C2neg equal 107.819879401274
variable C3neg equal ${d3}
variable C3neg equal 90.7343826297822
variable C4neg equal ${d4}
variable C4neg equal 1.59417445697537
variable C5neg equal ${d5}
variable C5neg equal -1.29445854959775
variable C6neg equal ${d6}
variable C6neg equal -7.60637139901308

# Reset box and simulation parameters

clear
OMP_NUM_THREADS environment is not set. Defaulting to 1 thread. (../comm.cpp:88)
  using 1 OpenMP thread(s) per MPI task
box tilt large
read_restart ./Outputs/lammps_out/Bulk_finite/restart.equil
  restoring atom style full from restart
  orthogonal box = (0 0 0) to (30.1216 30.1216 30.1216)
  1 by 1 by 1 MPI processor grid
  pair style eam/fs stores no restart info
  1372 atoms
  0 = max # of 1-2 neighbors
  0 = max # of 1-3 neighbors
  0 = max # of 1-4 neighbors
  1 = max # of special neighbors
  special bonds CPU = 0.000118744 secs
  read_restart CPU = 0.000503522 secs
include ./LAMMPS_scripts/Bulk_finite/potential.mod
# NOTE: This script can be modified for different pair styles
# See in.elastic for more info.

reset_timestep 0

# Choose potential
variable pairstyle file pairsty.txt
pair_style ${pairstyle}
pair_style eam/fs
variable potential file potential.txt
variable type file type.txt
pair_coeff * * ${potential} ${type}
pair_coeff * * Al1.eam.fs ${type}
pair_coeff * * Al1.eam.fs Al

# Setup neighbor style
neighbor 1.0 nsq
neigh_modify once no every 1 delay 0 check yes

# Setup output

fix avp all ave/time  ${nevery} ${nrepeat} ${nfreq} c_thermo_press mode vector
fix avp all ave/time  10 ${nrepeat} ${nfreq} c_thermo_press mode vector
fix avp all ave/time  10 10 ${nfreq} c_thermo_press mode vector
fix avp all ave/time  10 10 100 c_thermo_press mode vector
thermo		${nthermo}
thermo		100
thermo_style custom step temp pe press f_avp[1] f_avp[2] f_avp[3] f_avp[4] f_avp[5] f_avp[6]
thermo_modify norm no

# Setup MD

timestep ${timestep}
timestep 0.001
fix 4 all nve
if "${thermostat} == 1" then    "fix 5 all langevin ${temp} ${temp} ${tdamp} ${seed}"
fix 5 all langevin ${temp} ${temp} ${tdamp} ${seed}
fix 5 all langevin 1522.33284759607 ${temp} ${tdamp} ${seed}
fix 5 all langevin 1522.33284759607 1522.33284759607 ${tdamp} ${seed}
fix 5 all langevin 1522.33284759607 1522.33284759607 0.01 ${seed}
fix 5 all langevin 1522.33284759607 1522.33284759607 0.01 123457



# Positive deformation

variable delta equal ${up}*${len0}
variable delta equal 0.02*${len0}
variable delta equal 0.02*30.1216191276011
variable deltaxy equal ${up}*xy
variable deltaxy equal 0.02*xy
variable deltaxz equal ${up}*xz
variable deltaxz equal 0.02*xz
variable deltayz equal ${up}*yz
variable deltayz equal 0.02*yz
change_box all triclinic
  triclinic box = (0 0 0) to (30.1216 30.1216 30.1216) with tilt (0 0 0)
if "${dir} == 1" then    "change_box all x delta 0 ${delta} xy delta ${deltaxy} xz delta ${deltaxz} remap units box"
if "${dir} == 2" then    "change_box all y delta 0 ${delta} yz delta ${deltayz} remap units box"
if "${dir} == 3" then    "change_box all z delta 0 ${delta} remap units box"
change_box all z delta 0 ${delta} remap units box
change_box all z delta 0 0.602432382552022 remap units box
  triclinic box = (0 0 0) to (30.1216 30.1216 30.7241) with tilt (0 0 0)
if "${dir} == 4" then    "change_box all yz delta ${delta} remap units box"
if "${dir} == 5" then    "change_box all xz delta ${delta} remap units box"
if "${dir} == 6" then    "change_box all xy delta ${delta} remap units box"

# Run MD

run ${nequil}
run 1000
Neighbor list info ...
  update every 1 steps, delay 0 steps, check yes
  max neighbors/atom: 2000, page size: 100000
  master list distance cutoff = 7.5
  ghost atom cutoff = 7.5
  1 neighbor lists, perpetual/occasional/extra = 1 0 0
  (1) pair eam/fs, perpetual
      attributes: half, newton on
      pair build: half/nsq/newton
      stencil: none
      bin: none
Per MPI rank memory allocation (min/avg/max) = 6.051 | 6.051 | 6.051 Mbytes
Step Temp PotEng Press f_avp[1] f_avp[2] f_avp[3] f_avp[4] f_avp[5] f_avp[6] 
       0     1463.743   -4212.8138   -20276.739            0            0            0            0            0            0 
     100    1500.5074    -4178.172   -10008.114   -13182.308   -11837.788   -15240.117     2163.742    1069.7981    314.04634 
     200    1501.1156   -4153.4499   -1623.6801   -4524.4078   -6572.0427   -4929.6875    1667.5015    551.92764    1561.2433 
     300    1455.5161   -4148.4491     1705.456    1503.0919   -156.64657    1992.9262    1862.0587    437.50718    1231.7707 
     400    1471.7267   -4152.3506    74.309286    2763.0536    1767.3567    250.00748    346.48556    193.46602    788.37093 
     500    1543.0878    -4157.617   -1788.7862    701.01862    838.63385   -3260.5412    978.34561    38.221178    455.58669 
     600     1578.988   -4155.4968   -1379.3687   -678.33464   -534.99728   -4742.1736    1046.3373    679.56476    102.58834 
     700    1518.8731    -4162.485   -4143.9748   -3284.9146   -2460.0475    -5379.837    403.63211    878.15603   -1074.2459 
     800    1543.5148   -4163.8569   -3835.8826   -3841.9666   -4810.6262   -4804.1233    945.89475    241.71006   -660.84197 
     900    1521.1085   -4170.3198   -4357.2472   -2745.4275   -4078.3385   -3796.8211    934.19973     159.4715     92.57347 
    1000    1457.8966    -4164.172   -4627.3824   -2989.8685   -3810.1907   -5901.5152    420.69823    502.56622    622.09427 
Loop time of 3.38094 on 1 procs for 1000 steps with 1372 atoms

Performance: 25.555 ns/day, 0.939 hours/ns, 295.776 timesteps/s
99.6% CPU use with 1 MPI tasks x 1 OpenMP threads

MPI task timing breakdown:
Section |  min time  |  avg time  |  max time  |%varavg| %total
---------------------------------------------------------------
Pair    | 2.2016     | 2.2016     | 2.2016     |   0.0 | 65.12
Bond    | 8.6009e-05 | 8.6009e-05 | 8.6009e-05 |   0.0 |  0.00
Neigh   | 1.0984     | 1.0984     | 1.0984     |   0.0 | 32.49
Comm    | 0.015048   | 0.015048   | 0.015048   |   0.0 |  0.45
Output  | 0.00019921 | 0.00019921 | 0.00019921 |   0.0 |  0.01
Modify  | 0.059891   | 0.059891   | 0.059891   |   0.0 |  1.77
Other   |            | 0.005621   |            |       |  0.17

Nlocal:    1372 ave 1372 max 1372 min
Histogram: 1 0 0 0 0 0 0 0 0 0
Nghost:    3269 ave 3269 max 3269 min
Histogram: 1 0 0 0 0 0 0 0 0 0
Neighs:    58577 ave 58577 max 58577 min
Histogram: 1 0 0 0 0 0 0 0 0 0

Total # of neighbors = 58577
Ave neighs/atom = 42.6946
Ave special neighs/atom = 0
Neighbor list builds = 39
Dangerous builds = 0
include ./LAMMPS_scripts/Bulk_finite/potential.mod
# NOTE: This script can be modified for different pair styles
# See in.elastic for more info.

reset_timestep 0

# Choose potential
variable pairstyle file pairsty.txt
pair_style ${pairstyle}
pair_style eam/fs
variable potential file potential.txt
variable type file type.txt
pair_coeff * * ${potential} ${type}
pair_coeff * * Al1.eam.fs ${type}
pair_coeff * * Al1.eam.fs Al

# Setup neighbor style
neighbor 1.0 nsq
neigh_modify once no every 1 delay 0 check yes

# Setup output

fix avp all ave/time  ${nevery} ${nrepeat} ${nfreq} c_thermo_press mode vector
fix avp all ave/time  10 ${nrepeat} ${nfreq} c_thermo_press mode vector
fix avp all ave/time  10 10 ${nfreq} c_thermo_press mode vector
fix avp all ave/time  10 10 100 c_thermo_press mode vector
thermo		${nthermo}
thermo		100
thermo_style custom step temp pe press f_avp[1] f_avp[2] f_avp[3] f_avp[4] f_avp[5] f_avp[6]
WARNING: New thermo_style command, previous thermo_modify settings will be lost (../output.cpp:705)
thermo_modify norm no

# Setup MD

timestep ${timestep}
timestep 0.001
fix 4 all nve
if "${thermostat} == 1" then    "fix 5 all langevin ${temp} ${temp} ${tdamp} ${seed}"
fix 5 all langevin ${temp} ${temp} ${tdamp} ${seed}
fix 5 all langevin 1522.33284759607 ${temp} ${tdamp} ${seed}
fix 5 all langevin 1522.33284759607 1522.33284759607 ${tdamp} ${seed}
fix 5 all langevin 1522.33284759607 1522.33284759607 0.01 ${seed}
fix 5 all langevin 1522.33284759607 1522.33284759607 0.01 123457


run ${nrun}
run 300
Per MPI rank memory allocation (min/avg/max) = 6.051 | 6.051 | 6.051 Mbytes
[...]
variable C2neg equal ${d2}
variable C2neg equal 79.6870524738112
variable C3neg equal ${d3}
variable C3neg equal 62.5151217259536
variable C4neg equal ${d4}
variable C4neg equal 2.43321712046226
variable C5neg equal ${d5}
variable C5neg equal -1.5983230362627
variable C6neg equal ${d6}
variable C6neg equal -7.90878508951842

# Reset box and simulation parameters

clear
OMP_NUM_THREADS environment is not set. Defaulting to 1 thread. (../comm.cpp:88)
  using 1 OpenMP thread(s) per MPI task
box tilt large
read_restart ./Outputs/lammps_out/Bulk_finite/restart.equil
  restoring atom style full from restart
  orthogonal box = (0 0 0) to (30.1216 30.1216 30.1216)
  1 by 1 by 1 MPI processor grid
  pair style eam/fs stores no restart info
  1372 atoms
  0 = max # of 1-2 neighbors
  0 = max # of 1-3 neighbors
  0 = max # of 1-4 neighbors
  1 = max # of special neighbors
  special bonds CPU = 0.000121875 secs
  read_restart CPU = 0.000552637 secs
include ./LAMMPS_scripts/Bulk_finite/potential.mod
# NOTE: This script can be modified for different pair styles
# See in.elastic for more info.

reset_timestep 0

# Choose potential
variable pairstyle file pairsty.txt
pair_style ${pairstyle}
pair_style eam/fs
variable potential file potential.txt
variable type file type.txt
pair_coeff * * ${potential} ${type}
pair_coeff * * Al1.eam.fs ${type}
pair_coeff * * Al1.eam.fs Al

# Setup neighbor style
neighbor 1.0 nsq
neigh_modify once no every 1 delay 0 check yes

# Setup output

fix avp all ave/time  ${nevery} ${nrepeat} ${nfreq} c_thermo_press mode vector
fix avp all ave/time  10 ${nrepeat} ${nfreq} c_thermo_press mode vector
fix avp all ave/time  10 10 ${nfreq} c_thermo_press mode vector
fix avp all ave/time  10 10 100 c_thermo_press mode vector
thermo		${nthermo}
thermo		100
thermo_style custom step temp pe press f_avp[1] f_avp[2] f_avp[3] f_avp[4] f_avp[5] f_avp[6]
thermo_modify norm no

# Setup MD

timestep ${timestep}
timestep 0.001
fix 4 all nve
if "${thermostat} == 1" then    "fix 5 all langevin ${temp} ${temp} ${tdamp} ${seed}"
fix 5 all langevin ${temp} ${temp} ${tdamp} ${seed}
fix 5 all langevin 1522.33284759607 ${temp} ${tdamp} ${seed}
fix 5 all langevin 1522.33284759607 1522.33284759607 ${tdamp} ${seed}
fix 5 all langevin 1522.33284759607 1522.33284759607 0.01 ${seed}
fix 5 all langevin 1522.33284759607 1522.33284759607 0.01 123457



# Positive deformation

variable delta equal ${up}*${len0}
variable delta equal 0.02*${len0}
variable delta equal 0.02*30.1216191276011
variable deltaxy equal ${up}*xy
variable deltaxy equal 0.02*xy
variable deltaxz equal ${up}*xz
variable deltaxz equal 0.02*xz
variable deltayz equal ${up}*yz
variable deltayz equal 0.02*yz
change_box all triclinic
  triclinic box = (0 0 0) to (30.1216 30.1216 30.1216) with tilt (0 0 0)
if "${dir} == 1" then    "change_box all x delta 0 ${delta} xy delta ${deltaxy} xz delta ${deltaxz} remap units box"
if "${dir} == 2" then    "change_box all y delta 0 ${delta} yz delta ${deltayz} remap units box"
if "${dir} == 3" then    "change_box all z delta 0 ${delta} remap units box"
if "${dir} == 4" then    "change_box all yz delta ${delta} remap units box"
if "${dir} == 5" then    "change_box all xz delta ${delta} remap units box"
if "${dir} == 6" then    "change_box all xy delta ${delta} remap units box"
change_box all xy delta ${delta} remap units box
change_box all xy delta 0.602432382552022 remap units box
  triclinic box = (0 0 0) to (30.1216 30.1216 30.1216) with tilt (0.602432 0 0)

# Run MD

run ${nequil}
run 1000
Neighbor list info ...
  update every 1 steps, delay 0 steps, check yes
  max neighbors/atom: 2000, page size: 100000
  master list distance cutoff = 7.5
  ghost atom cutoff = 7.5
  1 neighbor lists, perpetual/occasional/extra = 1 0 0
  (1) pair eam/fs, perpetual
      attributes: half, newton on
      pair build: half/nsq/newton
      stencil: none
      bin: none
Per MPI rank memory allocation (min/avg/max) = 6.051 | 6.051 | 6.051 Mbytes
Step Temp PotEng Press f_avp[1] f_avp[2] f_avp[3] f_avp[4] f_avp[5] f_avp[6] 
       0     1463.743   -4221.9699   -11694.333            0            0            0            0            0            0 
     100     1499.341   -4193.1115   -3367.6098   -6676.9335    -5429.585   -6211.7302   -10.846373    1107.5057    399.75748 
     200    1500.3893   -4168.3006    4455.8769    1374.9474   -756.24245    2467.3392    298.98495    620.93529    1751.4063 
     300    1454.4792   -4163.7165    7253.6244    7083.7259    5195.1862    8451.1827    1063.8113    529.13383     1291.655 
     400     1468.476    -4168.098    5643.3659     8209.715    7078.4027    6087.1063   -256.22839    373.67098    751.49409 
     500    1543.0243   -4173.6167    3841.3104    6015.1246    6051.0075    2369.5482    290.39607    220.36219    389.60251 
     600    1576.1035   -4170.5495     4093.759    4633.4715    4454.5881    1221.0475     419.8387    776.50034    16.568011 
     700    1518.0415   -4179.1089    1149.9031    1792.7177    2830.5331    513.97126   -214.47498    768.23711   -1124.4262 
     800    1543.0649   -4181.6992     1287.519    1029.9553     374.4401     679.1096    513.02536     238.8659   -453.63137 
     900    1515.7013    -4187.417    692.01572    1816.9361    1107.0085    1490.8738    673.39138     252.2023    245.59785 
    1000    1455.0933   -4180.1534    269.20123    1859.8833    1267.1498   -151.27461   -59.479359    590.45669    625.38189 
Loop time of 3.40791 on 1 procs for 1000 steps with 1372 atoms

Performance: 25.353 ns/day, 0.947 hours/ns, 293.435 timesteps/s
99.7% CPU use with 1 MPI tasks x 1 OpenMP threads

MPI task timing breakdown:
Section |  min time  |  avg time  |  max time  |%varavg| %total
---------------------------------------------------------------
Pair    | 2.1965     | 2.1965     | 2.1965     |   0.0 | 64.45
Bond    | 9.0392e-05 | 9.0392e-05 | 9.0392e-05 |   0.0 |  0.00
Neigh   | 1.1287     | 1.1287     | 1.1287     |   0.0 | 33.12
Comm    | 0.015195   | 0.015195   | 0.015195   |   0.0 |  0.45
Output  | 0.00019826 | 0.00019826 | 0.00019826 |   0.0 |  0.01
Modify  | 0.061509   | 0.061509   | 0.061509   |   0.0 |  1.80
Other   |            | 0.005768   |            |       |  0.17

Nlocal:    1372 ave 1372 max 1372 min
Histogram: 1 0 0 0 0 0 0 0 0 0
Nghost:    3281 ave 3281 max 3281 min
Histogram: 1 0 0 0 0 0 0 0 0 0
Neighs:    59852 ave 59852 max 59852 min
Histogram: 1 0 0 0 0 0 0 0 0 0

Total # of neighbors = 59852
Ave neighs/atom = 43.6239
Ave special neighs/atom = 0
Neighbor list builds = 39
Dangerous builds = 0
include ./LAMMPS_scripts/Bulk_finite/potential.mod
# NOTE: This script can be modified for different pair styles
# See in.elastic for more info.

reset_timestep 0

# Choose potential
variable pairstyle file pairsty.txt
pair_style ${pairstyle}
pair_style eam/fs
variable potential file potential.txt
variable type file type.txt
pair_coeff * * ${potential} ${type}
pair_coeff * * Al1.eam.fs ${type}
pair_coeff * * Al1.eam.fs Al

# Setup neighbor style
neighbor 1.0 nsq
neigh_modify once no every 1 delay 0 check yes

# Setup output

fix avp all ave/time  ${nevery} ${nrepeat} ${nfreq} c_thermo_press mode vector
fix avp all ave/time  10 ${nrepeat} ${nfreq} c_thermo_press mode vector
fix avp all ave/time  10 10 ${nfreq} c_thermo_press mode vector
fix avp all ave/time  10 10 100 c_thermo_press mode vector
thermo		${nthermo}
thermo		100
thermo_style custom step temp pe press f_avp[1] f_avp[2] f_avp[3] f_avp[4] f_avp[5] f_avp[6]
WARNING: New thermo_style command, previous thermo_modify settings will be lost (../output.cpp:705)
thermo_modify norm no

# Setup MD

timestep ${timestep}
timestep 0.001
fix 4 all nve
if "${thermostat} == 1" then    "fix 5 all langevin ${temp} ${temp} ${tdamp} ${seed}"
fix 5 all langevin ${temp} ${temp} ${tdamp} ${seed}
fix 5 all langevin 1522.33284759607 ${temp} ${tdamp} ${seed}
fix 5 all langevin 1522.33284759607 1522.33284759607 ${tdamp} ${seed}
fix 5 all langevin 1522.33284759607 1522.33284759607 0.01 ${seed}
fix 5 all langevin 1522.33284759607 1522.33284759607 0.01 123457


run ${nrun}
run 300
Per MPI rank memory allocation (min/avg/max) = 6.051 | 6.051 | 6.051 Mbytes
Step Temp PotEng Press f_avp[1] f_avp[2] f_avp[3] f_avp[4] f_avp[5] f_avp[6] 
       0    1455.0933   -4180.1534    269.20123            0            0            0            0            0            0 
     100    1507.0272   -4170.5401     2924.474    1305.9408    1623.1438    2535.3206    1054.5182    405.64858     2058.451 
     200    1510.8809   -4175.8767    4381.3864    3817.0658    2502.7915    2233.2667    820.94324    1492.8751    711.04308 
     300    1473.3363   -4178.5697    3736.8542    4171.7599    4902.3325    3956.1257    486.63073    436.01295     701.4288 
Loop time of 0.995692 on 1 procs for 300 steps with 1372 atoms

Performance: 26.032 ns/day, 0.922 hours/ns, 301.298 timesteps/s
99.5% CPU use with 1 MPI tasks x 1 OpenMP threads

MPI task timing breakdown:
Section |  min time  |  avg time  |  max time  |%varavg| %total
---------------------------------------------------------------
Pair    | 0.65464    | 0.65464    | 0.65464    |   0.0 | 65.75
Bond    | 3.1548e-05 | 3.1548e-05 | 3.1548e-05 |   0.0 |  0.00
Neigh   | 0.31671    | 0.31671    | 0.31671    |   0.0 | 31.81
Comm    | 0.00446    | 0.00446    | 0.00446    |   0.0 |  0.45
Output  | 5.9863e-05 | 5.9863e-05 | 5.9863e-05 |   0.0 |  0.01
Modify  | 0.01807    | 0.01807    | 0.01807    |   0.0 |  1.81
Other   |            | 0.001714   |            |       |  0.17

Nlocal:    1372 ave 1372 max 1372 min
Histogram: 1 0 0 0 0 0 0 0 0 0
Nghost:    3315 ave 3315 max 3315 min
Histogram: 1 0 0 0 0 0 0 0 0 0
Neighs:    60033 ave 60033 max 60033 min
Histogram: 1 0 0 0 0 0 0 0 0 0

Total # of neighbors = 60033
Ave neighs/atom = 43.7558
Ave special neighs/atom = 0
Neighbor list builds = 11
Dangerous builds = 0

# Obtain new stress tensor

variable tmp equal pe
variable e1 equal ${tmp}
variable e1 equal -4178.56967138592
variable tmp equal press
variable p1 equal ${tmp}
variable p1 equal 3736.85415353024
variable tmp equal pxx
variable pxx1 equal ${tmp}
variable pxx1 equal 3927.80793599939
variable tmp equal pyy
variable pyy1 equal ${tmp}
variable pyy1 equal 2704.97783777655
variable tmp equal pzz
variable pzz1 equal ${tmp}
variable pzz1 equal 4577.77668681475
variable tmp equal pxy
variable pxy1 equal ${tmp}
variable pxy1 equal -29.7160911867997
variable tmp equal pxz
variable pxz1 equal ${tmp}
variable pxz1 equal 268.848482613089
variable tmp equal pyz
variable pyz1 equal ${tmp}
variable pyz1 equal 107.171624134672

# Compute elastic constant from pressure tensor

variable C1pos equal ${d1}
variable C1pos equal -72.677788883719
variable C2pos equal ${d2}
variable C2pos equal -67.2548421578618
variable C3pos equal ${d3}
variable C3pos equal -67.2795915550656
variable C4pos equal ${d4}
variable C4pos equal 1.43636178045946
variable C5pos equal ${d5}
variable C5pos equal 1.66849003899503
variable C6pos equal ${d6}
variable C6pos equal 11.6714565949031

# Combine positive and negative

variable C1${dir} equal 0.5*(${C1neg}+${C1pos})
variable C16 equal 0.5*(${C1neg}+${C1pos})
variable C16 equal 0.5*(72.8084620053281+${C1pos})
variable C16 equal 0.5*(72.8084620053281+-72.677788883719)
variable C2${dir} equal 0.5*(${C2neg}+${C2pos})
variable C26 equal 0.5*(${C2neg}+${C2pos})
variable C26 equal 0.5*(79.6870524738112+${C2pos})
variable C26 equal 0.5*(79.6870524738112+-67.2548421578618)
variable C3${dir} equal 0.5*(${C3neg}+${C3pos})
variable C36 equal 0.5*(${C3neg}+${C3pos})
variable C36 equal 0.5*(62.5151217259536+${C3pos})
variable C36 equal 0.5*(62.5151217259536+-67.2795915550656)
variable C4${dir} equal 0.5*(${C4neg}+${C4pos})
variable C46 equal 0.5*(${C4neg}+${C4pos})
variable C46 equal 0.5*(2.43321712046226+${C4pos})
variable C46 equal 0.5*(2.43321712046226+1.43636178045946)
variable C5${dir} equal 0.5*(${C5neg}+${C5pos})
variable C56 equal 0.5*(${C5neg}+${C5pos})
variable C56 equal 0.5*(-1.5983230362627+${C5pos})
variable C56 equal 0.5*(-1.5983230362627+1.66849003899503)
variable C6${dir} equal 0.5*(${C6neg}+${C6pos})
variable C66 equal 0.5*(${C6neg}+${C6pos})
variable C66 equal 0.5*(-7.90878508951842+${C6pos})
variable C66 equal 0.5*(-7.90878508951842+11.6714565949031)

# Delete dir to make sure it is not reused

variable dir delete

# Output final values

variable C11all equal ${C11}
variable C11all equal 29.0065656805683
variable C22all equal ${C22}
variable C22all equal 31.9784566742844
variable C33all equal ${C33}
variable C33all equal 24.12134359499

variable C12all equal 0.5*(${C12}+${C21})
variable C12all equal 0.5*(27.1197627131178+${C21})
variable C12all equal 0.5*(27.1197627131178+31.9547263593736)
variable C13all equal 0.5*(${C13}+${C31})
variable C13all equal 0.5*(27.0756504021931+${C31})
variable C13all equal 0.5*(27.0756504021931+21.2781871013141)
variable C23all equal 0.5*(${C23}+${C32})
variable C23all equal 0.5*(30.9786337178289+${C32})
variable C23all equal 0.5*(30.9786337178289+26.3846711777995)

variable C44all equal ${C44}
variable C44all equal 2.45383317231179
variable C55all equal ${C55}
variable C55all equal 0.20207170768861
variable C66all equal ${C66}
variable C66all equal 1.88133575269234

variable C14all equal 0.5*(${C14}+${C41})
variable C14all equal 0.5*(1.96381276292835+${C41})
variable C14all equal 0.5*(1.96381276292835+2.60244875869487)
variable C15all equal 0.5*(${C15}+${C51})
variable C15all equal 0.5*(1.5800645768916+${C51})
variable C15all equal 0.5*(1.5800645768916+0.1713360942354)
variable C16all equal 0.5*(${C16}+${C61})
variable C16all equal 0.5*(0.0653365608045462+${C61})
variable C16all equal 0.5*(0.0653365608045462+2.56210437193808)

variable C24all equal 0.5*(${C24}+${C42})
variable C24all equal 0.5*(4.1855456092051+${C42})
variable C24all equal 0.5*(4.1855456092051+1.61522280932682)
variable C25all equal 0.5*(${C25}+${C52})
variable C25all equal 0.5*(3.3009203954374+${C52})
variable C25all equal 0.5*(3.3009203954374+-1.23904956136926)
variable C26all equal 0.5*(${C26}+${C62})
variable C26all equal 0.5*(6.2161051579747+${C62})
variable C26all equal 0.5*(6.2161051579747+2.18295652997617)

variable C34all equal 0.5*(${C34}+${C43})
variable C34all equal 0.5*(0.230716154498751+${C43})
variable C34all equal 0.5*(0.230716154498751+1.1741175816635)
variable C35all equal 0.5*(${C35}+${C53})
variable C35all equal 0.5*(-0.450148314904297+${C53})
variable C35all equal 0.5*(-0.450148314904297+0.98565621501313)
variable C36all equal 0.5*(${C36}+${C63})
variable C36all equal 0.5*(-2.382234914556+${C63})
variable C36all equal 0.5*(-2.382234914556+2.21519347595536)

variable C45all equal 0.5*(${C45}+${C54})
variable C45all equal 0.5*(1.5774371572214+${C54})
variable C45all equal 0.5*(1.5774371572214+0.38065917697223)
variable C46all equal 0.5*(${C46}+${C64})
variable C46all equal 0.5*(1.93478945046086+${C64})
variable C46all equal 0.5*(1.93478945046086+1.5466592362768)
variable C56all equal 0.5*(${C56}+${C65})
variable C56all equal 0.5*(0.035083501366165+${C65})
variable C56all equal 0.5*(0.035083501366165+0.8560682709018)

# Average moduli for cubic crystals

variable C11cubic equal (${C11all}+${C22all}+${C33all})/3.0
variable C11cubic equal (29.0065656805683+${C22all}+${C33all})/3.0
variable C11cubic equal (29.0065656805683+31.9784566742844+${C33all})/3.0
variable C11cubic equal (29.0065656805683+31.9784566742844+24.12134359499)/3.0
variable C12cubic equal (${C12all}+${C13all}+${C23all})/3.0
variable C12cubic equal (29.5372445362457+${C13all}+${C23all})/3.0
variable C12cubic equal (29.5372445362457+24.1769187517536+${C23all})/3.0
variable C12cubic equal (29.5372445362457+24.1769187517536+28.6816524478142)/3.0
variable C44cubic equal (${C44all}+${C55all}+${C66all})/3.0
variable C44cubic equal (2.45383317231179+${C55all}+${C66all})/3.0
variable C44cubic equal (2.45383317231179+0.20207170768861+${C66all})/3.0
variable C44cubic equal (2.45383317231179+0.20207170768861+1.88133575269234)/3.0

variable bulkmodulus equal (${C11cubic}+2*${C12cubic})/3.0
variable bulkmodulus equal (28.3687886499476+2*${C12cubic})/3.0
variable bulkmodulus equal (28.3687886499476+2*27.4652719119378)/3.0
variable shearmodulus1 equal ${C44cubic}
variable shearmodulus1 equal 1.51241354423091
variable shearmodulus2 equal (${C11cubic}-${C12cubic})/2.0
variable shearmodulus2 equal (28.3687886499476-${C12cubic})/2.0
variable shearmodulus2 equal (28.3687886499476-27.4652719119378)/2.0
variable poissonratio equal 1.0/(1.0+${C11cubic}/${C12cubic})
variable poissonratio equal 1.0/(1.0+28.3687886499476/${C12cubic})
variable poissonratio equal 1.0/(1.0+28.3687886499476/27.4652719119378)

# For Stillinger-Weber silicon, the analytical results
# are known to be (E. R. Cowley, 1988):
#               C11 = 151.4 GPa
#               C12 = 76.4 GPa
#               C44 = 56.4 GPa

print "========================================="
=========================================
print "Components of the Elastic Constant Tensor"
Components of the Elastic Constant Tensor
print "========================================="
=========================================

print "Elastic Constant C11all=${C11all}" file BulkProp_finite.txt
Elastic Constant C11all=29.0065656805683
print "Elastic Constant C22all = ${C22all} ${cunits}"
Elastic Constant C22all = 31.9784566742844 GPa
print "Elastic Constant C33all = ${C33all} ${cunits}"
Elastic Constant C33all = 24.12134359499 GPa

print "Elastic Constant C12all=${C12all}" append BulkProp_finite.txt
Elastic Constant C12all=29.5372445362457
print "Elastic Constant C13all = ${C13all} ${cunits}"
Elastic Constant C13all = 24.1769187517536 GPa
print "Elastic Constant C23all = ${C23all} ${cunits}"
Elastic Constant C23all = 28.6816524478142 GPa

print "Elastic Constant C44all=${C44all}" append BulkProp_finite.txt
Elastic Constant C44all=2.45383317231179
print "Elastic Constant C55all = ${C55all} ${cunits}"
Elastic Constant C55all = 0.20207170768861 GPa
print "Elastic Constant C66all = ${C66all} ${cunits}"
Elastic Constant C66all = 1.88133575269234 GPa

print "Elastic Constant C14all = ${C14all} ${cunits}"
Elastic Constant C14all = 2.28313076081161 GPa
print "Elastic Constant C15all = ${C15all} ${cunits}"
Elastic Constant C15all = 0.8757003355635 GPa
print "Elastic Constant C16all = ${C16all} ${cunits}"
Elastic Constant C16all = 1.31372046637131 GPa

print "Elastic Constant C24all = ${C24all} ${cunits}"
Elastic Constant C24all = 2.90038420926596 GPa
print "Elastic Constant C25all = ${C25all} ${cunits}"
Elastic Constant C25all = 1.03093541703407 GPa
print "Elastic Constant C26all = ${C26all} ${cunits}"
Elastic Constant C26all = 4.19953084397543 GPa

print "Elastic Constant C34all = ${C34all} ${cunits}"
Elastic Constant C34all = 0.702416868081126 GPa
print "Elastic Constant C35all = ${C35all} ${cunits}"
Elastic Constant C35all = 0.267753950054416 GPa
print "Elastic Constant C36all = ${C36all} ${cunits}"
Elastic Constant C36all = -0.0835207193003198 GPa

print "Elastic Constant C45all = ${C45all} ${cunits}"
Elastic Constant C45all = 0.979048167096815 GPa
print "Elastic Constant C46all = ${C46all} ${cunits}"
Elastic Constant C46all = 1.74072434336883 GPa
print "Elastic Constant C56all = ${C56all} ${cunits}"
Elastic Constant C56all = 0.445575886133983 GPa

print "========================================="
=========================================
print "Average properties for a cubic crystal"
Average properties for a cubic crystal
print "========================================="
=========================================

print "Bulk Modulus=${bulkmodulus}" append BulkProp_finite.txt
Bulk Modulus=27.7664441579411
print "Shear Modulus 1=${shearmodulus1}" append BulkProp_finite.txt
Shear Modulus 1=1.51241354423091
print "Shear Modulus 2=${shearmodulus2}" append BulkProp_finite.txt
Shear Modulus 2=0.451758369004899
print "Poisson Ratio=${poissonratio}" append BulkProp_finite.txt
Poisson Ratio=0.491908910717604
Total wall time: 0:00:58
