LAMMPS (30 Apr 2019)
OMP_NUM_THREADS environment is not set. Defaulting to 1 thread. (../comm.cpp:88)
  using 1 OpenMP thread(s) per MPI task
Lattice spacing in x,y,z = 4 4 4
Created orthogonal box = (0 0 0) to (4 4 4)
  1 by 1 by 1 MPI processor grid
Created 4 atoms
  create_atoms CPU = 0.00120523 secs
Replicating atoms ...
  orthogonal box = (0 0 0) to (28 28 28)
  1 by 1 by 1 MPI processor grid
  1372 atoms
Finding 1-2 1-3 1-4 neighbors ...
  special bond factors lj:   0          0          0         
  special bond factors coul: 0          0          0         
  0 = max # of 1-2 neighbors
  0 = max # of 1-3 neighbors
  0 = max # of 1-4 neighbors
  1 = max # of special neighbors
  special bonds CPU = 0.000153062 secs
  replicate CPU = 0.000600167 secs
WARNING: Using 'neigh_modify every 1 delay 0 check yes' setting during minimization (../min.cpp:168)
Neighbor list info ...
  update every 1 steps, delay 0 steps, check yes
  max neighbors/atom: 2000, page size: 100000
  master list distance cutoff = 8.5
  ghost atom cutoff = 8.5
  binsize = 4.25, bins = 7 7 7
  1 neighbor lists, perpetual/occasional/extra = 1 0 0
  (1) pair eam/fs, perpetual
      attributes: half, newton on
      pair build: half/bin/newton
      stencil: half/bin/3d/newton
      bin: standard
Setting up cg style minimization ...
  Unit style    : metal
  Current step  : 0
Per MPI rank memory allocation (min/avg/max) = 7.722 | 7.722 | 7.722 Mbytes
Step Temp E_pair E_mol TotEng Press 
       0            0   -4672.7064            0   -4672.7064    30165.987 
       1            0   -4672.7064            0   -4672.7064    30165.987 
Loop time of 0.0092684 on 1 procs for 1 steps with 1372 atoms

99.7% CPU use with 1 MPI tasks x 1 OpenMP threads

Minimization stats:
  Stopping criterion = quadratic factors are zero
  Energy initial, next-to-last, final = 
        -4672.70642806     -4672.70642806     -4672.70642806
  Force two-norm initial, final = 4.22837e-15 4.22837e-15
  Force max component initial, final = 2.35922e-16 2.35922e-16
  Final line search alpha, max atom move = 1 2.35922e-16
  Iterations, force evaluations = 1 2

MPI task timing breakdown:
Section |  min time  |  avg time  |  max time  |%varavg| %total
---------------------------------------------------------------
Pair    | 0.009148   | 0.009148   | 0.009148   |   0.0 | 98.70
Bond    | 3.15e-07   | 3.15e-07   | 3.15e-07   |   0.0 |  0.00
Neigh   | 0          | 0          | 0          |   0.0 |  0.00
Comm    | 4.7834e-05 | 4.7834e-05 | 4.7834e-05 |   0.0 |  0.52
Output  | 0          | 0          | 0          |   0.0 |  0.00
Modify  | 0          | 0          | 0          |   0.0 |  0.00
Other   |            | 7.221e-05  |            |       |  0.78

Nlocal:    1372 ave 1372 max 1372 min
Histogram: 1 0 0 0 0 0 0 0 0 0
Nghost:    4712 ave 4712 max 4712 min
Histogram: 1 0 0 0 0 0 0 0 0 0
Neighs:    120736 ave 120736 max 120736 min
Histogram: 1 0 0 0 0 0 0 0 0 0

Total # of neighbors = 120736
Ave neighs/atom = 88
Ave special neighs/atom = 0
Neighbor list builds = 0
Dangerous builds = 0
Setting up Verlet run ...
  Unit style    : metal
  Current step  : 1
  Time step     : 0.001
Per MPI rank memory allocation (min/avg/max) = 6.597 | 6.597 | 6.597 Mbytes
Step PotEng Lx Ly Lz KinEng TotEng Temp Press Density 
       1   -4672.7064           28           28           28     266.0007   -4406.7057         1501    43108.774    2.8002436 
     100   -4539.1351           28           28           28    132.48669   -4406.6485    747.60151    70182.569    2.8002436 
     200   -4529.0997           28           28           28    122.45499   -4406.6447    690.99417    70947.858    2.8002436 
     300   -4535.5521           28           28           28    128.90334   -4406.6487     727.3812    69664.599    2.8002436 
     400   -4535.7366           28           28           28    129.08804   -4406.6485    728.42346    70033.647    2.8002436 
     500   -4538.0987           28           28           28    131.44927   -4406.6494    741.74751    69990.259    2.8002436 
     600   -4533.0695           28           28           28    126.42023   -4406.6492    713.36942    70366.684    2.8002436 
     700   -4537.8237           28           28           28    131.17523   -4406.6484    740.20114    69572.826    2.8002436 
     800   -4534.2499           28           28           28    127.60237   -4406.6476    720.04006    70141.484    2.8002436 
     900   -4532.1577           28           28           28    125.50841   -4406.6492    708.22415    70544.421    2.8002436 
    1000   -4539.0572           28           28           28    132.40728   -4406.6499    747.15337    69802.854    2.8002436 
    1100   -4536.7885           28           28           28    130.13929   -4406.6492    734.35545    69974.754    2.8002436 
    1200   -4536.4746           28           28           28    129.82484   -4406.6497    732.58111    70031.253    2.8002436 
    1300   -4532.0778           28           28           28    125.43145   -4406.6464     707.7899    70394.571    2.8002436 
    1400   -4534.1521           28           28           28    127.50347   -4406.6487    719.48194    70112.694    2.8002436 
    1500    -4536.293           28           28           28    129.64372   -4406.6493    731.55906    69863.896    2.8002436 
    1600   -4531.7288           28           28           28    125.08134   -4406.6475    705.81428    70419.768    2.8002436 
    1700   -4534.5226           28           28           28    127.87305   -4406.6496    721.56742    70202.685    2.8002436 
    1800   -4533.8877           28           28           28    127.24048   -4406.6472    717.99793     70380.87    2.8002436 
    1900   -4539.0134           28           28           28    132.36353   -4406.6499    746.90649     69284.36    2.8002436 
    2000   -4536.4483           28           28           28    129.79926    -4406.649    732.43677    69973.233    2.8002436 
    2100   -4534.8492           28           28           28    128.20155   -4406.6477     723.4211    70127.658    2.8002436 
    2200   -4537.4311           28           28           28    130.78247   -4406.6486    737.98484    69755.079    2.8002436 
    2300    -4541.057           28           28           28    134.40639   -4406.6506    758.43406    69603.175    2.8002436 
    2400   -4535.5966           28           28           28    128.94753   -4406.6491    727.63055    70047.209    2.8002436 
    2500   -4538.8267           28           28           28    132.17744   -4406.6492    745.85643    69429.652    2.8002436 
    2600   -4531.3488           28           28           28    124.70302   -4406.6458    703.67949    70426.411    2.8002436 
    2700   -4536.6054           28           28           28    129.95667   -4406.6487    733.32499    69700.038    2.8002436 
    2800   -4536.0673           28           28           28    129.41778   -4406.6495    730.28411    69918.385    2.8002436 
    2900   -4535.9023           28           28           28    129.25353   -4406.6487    729.35725    69833.578    2.8002436 
    3000    -4533.387           28           28           28    126.73973   -4406.6473     715.1723    70130.408    2.8002436 
    3100   -4530.6295           28           28           28    123.98347    -4406.646    699.61916    70657.693    2.8002436 
    3200    -4536.666           28           28           28    130.01599     -4406.65    733.65973    69839.913    2.8002436 
    3300   -4535.3888           28           28           28    128.74006   -4406.6487    726.45987    70108.299    2.8002436 
    3400   -4531.7556           28           28           28    125.10845   -4406.6471    705.96722    70400.079    2.8002436 
    3500   -4536.0203           28           28           28    129.37122    -4406.649    730.02136    70026.016    2.8002436 
    3600   -4535.5595           28           28           28    128.90945     -4406.65    727.41567    69945.615    2.8002436 
    3700   -4533.3672           28           28           28    126.72005   -4406.6471    715.06123    70191.032    2.8002436 
    3800   -4533.1903           28           28           28    126.54422   -4406.6461    714.06909    70205.806    2.8002436 
    3900   -4535.7739           28           28           28    129.12545   -4406.6485    728.63452    70084.904    2.8002436 
    4000   -4538.1882           28           28           28    131.53862   -4406.6496    742.25165    69643.638    2.8002436 
    4100   -4535.2395           28           28           28    128.59073   -4406.6488    725.61718    70059.746    2.8002436 
    4200   -4531.2283           28           28           28    124.58229    -4406.646    702.99818    70899.959    2.8002436 
    4300   -4538.1126           28           28           28    131.46342   -4406.6492    741.82735    69774.478    2.8002436 
    4400   -4534.4779           28           28           28    127.82947   -4406.6484    721.32153    70297.601    2.8002436 
    4500   -4535.6526           28           28           28    129.00532   -4406.6472    727.95666    69385.077    2.8002436 
    4600   -4535.5591           28           28           28    128.91317   -4406.6459    727.43666    69642.542    2.8002436 
    4700   -4534.0679           28           28           28    127.41985    -4406.648    719.01009     70389.36    2.8002436 
    4800   -4535.2893           28           28           28    128.64123    -4406.648    725.90215    69960.197    2.8002436 
    4900    -4535.921           28           28           28    129.27304    -4406.648    729.46737    69869.905    2.8002436 
    5000   -4533.5118           28           28           28    126.86513   -4406.6467    715.87993    70269.924    2.8002436 
    5100    -4537.645           28           28           28    130.99566   -4406.6494    739.18782    69734.309    2.8002436 
    5200   -4533.2947           28           28           28    126.64774    -4406.647    714.65323    70398.447    2.8002436 
    5300   -4533.7324           28           28           28     127.0861   -4406.6463     717.1268     69902.51    2.8002436 
    5400   -4534.5305           28           28           28    127.88307   -4406.6474      721.624    69813.082    2.8002436 
    5500   -4534.2995           28           28           28    127.65176   -4406.6478    720.31873    69966.548    2.8002436 
    5600   -4536.0068           28           28           28    129.35866   -4406.6481    729.95052    69669.584    2.8002436 
    5700   -4534.4884           28           28           28    127.84111   -4406.6473    721.38722    69977.177    2.8002436 
    5800   -4536.7274           28           28           28    130.07822   -4406.6492    734.01086    69771.859    2.8002436 
    5900   -4534.2737           28           28           28    127.62599   -4406.6477    720.17332    70061.876    2.8002436 
    6000   -4534.1638           28           28           28    127.51626   -4406.6475    719.55412     69946.33    2.8002436 
    6100   -4533.3009           28           28           28    126.65318   -4406.6477    714.68391    70358.929    2.8002436 
    6200   -4537.3985           28           28           28    130.74973   -4406.6488    737.80007    69686.812    2.8002436 
    6300   -4533.5657           28           28           28    126.91709   -4406.6486    716.17313    70241.132    2.8002436 
    6400   -4533.3272           28           28           28    126.67906   -4406.6482    714.82994    70152.229    2.8002436 
    6500   -4534.8874           28           28           28    128.23965   -4406.6478    723.63611    70009.519    2.8002436 
    6600   -4536.6441           28           28           28    129.99523   -4406.6488    733.54254    69931.261    2.8002436 
    6700   -4536.7082           28           28           28    130.06015    -4406.648    733.90888    69765.184    2.8002436 
    6800   -4535.2798           28           28           28    128.63153   -4406.6482    725.84742    70030.187    2.8002436 
    6900   -4536.1801           28           28           28    129.53114    -4406.649    730.92377    69994.961    2.8002436 
    7000   -4536.0395           28           28           28     129.3909   -4406.6486    730.13242    69621.589    2.8002436 
    7100   -4536.4184           28           28           28    129.77097   -4406.6474    732.27709    70208.928    2.8002436 
    7200   -4534.6844           28           28           28     128.0367   -4406.6477    722.49091    70218.059    2.8002436 
    7300   -4537.0109           28           28           28    130.36105   -4406.6499    735.60681    69926.426    2.8002436 
    7400   -4532.6439           28           28           28    125.99643   -4406.6474    710.97796    70274.345    2.8002436 
    7500   -4533.0687           28           28           28    126.42118   -4406.6475    713.37478    70259.771    2.8002436 
    7600   -4536.4667           28           28           28    129.81805   -4406.6486    732.54277    70138.815    2.8002436 
    7700   -4535.8633           28           28           28    129.21436   -4406.6489    729.13622     69774.41    2.8002436 
    7800   -4533.2566           28           28           28    126.60965    -4406.647    714.43826    70159.971    2.8002436 
    7900   -4534.3402           28           28           28    127.69269   -4406.6475    720.54969     70156.93    2.8002436 
    8000   -4534.9632           28           28           28    128.31599   -4406.6472    724.06691    70198.985    2.8002436 
    8100   -4530.9637           28           28           28    124.31797   -4406.6457    701.50671    70090.617    2.8002436 
    8200    -4534.619           28           28           28    127.97132   -4406.6477    722.12194    70114.988    2.8002436 
    8300   -4534.8707           28           28           28     128.2213   -4406.6494    723.53254    70055.867    2.8002436 
    8400   -4534.5369           28           28           28    127.88979   -4406.6471    721.66189     70036.71    2.8002436 
    8500   -4533.6704           28           28           28    127.02215   -4406.6483    716.76592    70302.115    2.8002436 
    8600   -4530.8987           28           28           28    124.25229   -4406.6464    701.13605    70415.605    2.8002436 
    8700   -4538.9356           28           28           28    132.28445   -4406.6511     746.4603    69404.459    2.8002436 
    8800   -4535.3821           28           28           28    128.73342   -4406.6487    726.42237    69954.391    2.8002436 
    8900   -4539.2013           28           28           28    132.55073   -4406.6506    747.96284    69869.509    2.8002436 
    9000   -4534.2022           28           28           28    127.55335   -4406.6488     719.7634    70071.431    2.8002436 
    9100   -4535.9954           28           28           28    129.34671   -4406.6487    729.88305    70026.319    2.8002436 
    9200   -4533.1598           28           28           28    126.51294   -4406.6468    713.89254    70228.373    2.8002436 
    9300   -4533.5406           28           28           28    126.89333   -4406.6473    716.03903    69968.179    2.8002436 
    9400   -4538.3253           28           28           28    131.67525     -4406.65    743.02265     69496.84    2.8002436 
    9500   -4532.7042           28           28           28    126.05612    -4406.648     711.3148    70159.546    2.8002436 
    9600   -4536.7201           28           28           28    130.07018   -4406.6499    733.96548    69777.565    2.8002436 
    9700   -4532.1706           28           28           28    125.52388   -4406.6468    708.31145    70447.405    2.8002436 
    9800   -4535.3337           28           28           28    128.68407   -4406.6496    726.14392    70056.177    2.8002436 
    9900   -4536.1981           28           28           28    129.54965   -4406.6484    731.02821    70003.585    2.8002436 
   10000   -4537.6846           28           28           28    131.03529   -4406.6493    739.41144    69916.247    2.8002436 
   10001   -4537.5886           28           28           28    130.93933   -4406.6493    738.86997    69939.632    2.8002436 
Loop time of 29.9487 on 1 procs for 10000 steps with 1372 atoms

Performance: 28.849 ns/day, 0.832 hours/ns, 333.904 timesteps/s
99.6% CPU use with 1 MPI tasks x 1 OpenMP threads

MPI task timing breakdown:
Section |  min time  |  avg time  |  max time  |%varavg| %total
---------------------------------------------------------------
Pair    | 29.619     | 29.619     | 29.619     |   0.0 | 98.90
Bond    | 0.0010344  | 0.0010344  | 0.0010344  |   0.0 |  0.00
Neigh   | 0          | 0          | 0          |   0.0 |  0.00
Comm    | 0.17266    | 0.17266    | 0.17266    |   0.0 |  0.58
Output  | 0.0021966  | 0.0021966  | 0.0021966  |   0.0 |  0.01
Modify  | 0.093679   | 0.093679   | 0.093679   |   0.0 |  0.31
Other   |            | 0.06043    |            |       |  0.20

Nlocal:    1372 ave 1372 max 1372 min
Histogram: 1 0 0 0 0 0 0 0 0 0
Nghost:    4712 ave 4712 max 4712 min
Histogram: 1 0 0 0 0 0 0 0 0 0
Neighs:    120736 ave 120736 max 120736 min
Histogram: 1 0 0 0 0 0 0 0 0 0

Total # of neighbors = 120736
Ave neighs/atom = 88
Ave special neighs/atom = 0
Neighbor list builds = 0
Dangerous builds = 0
Setting up Verlet run ...
  Unit style    : metal
  Current step  : 10001
  Time step     : 0.001
Per MPI rank memory allocation (min/avg/max) = 6.597 | 6.597 | 6.597 Mbytes
Step PotEng Lx Ly Lz KinEng TotEng Temp Press Density 
   10001   -4537.5886           28           28           28    130.93933   -4406.6493    738.86997    69939.632    2.8002436 
   10100   -4546.3308     28.53729     28.53729     28.53729    129.36947   -4416.9614    730.01151    18964.731    2.6450368 
   10200   -4515.9764    28.927478    28.927478    28.927478    131.84739    -4384.129    743.99401   -7121.9375    2.5394413 
   10300   -4494.5846    28.979687    28.979687    28.979687    154.80104   -4339.7835    873.51786   -5307.6283    2.5257412 
   10400   -4460.8532    28.931447    28.931447    28.931447    171.87549   -4288.9777    969.86628     6594.608    2.5383963 
   10500   -4429.7651    29.008476    29.008476    29.008476    195.21497   -4234.5501    1101.5673    7701.1203    2.5182286 
   10600   -4390.3145    29.196781    29.196781    29.196781    210.88843   -4179.4261    1190.0101    3160.1433    2.4698183 
   10700   -4354.8362    29.368622    29.368622    29.368622    231.65288   -4123.1834    1307.1807    1144.4028    2.4267173 
   10800   -4306.4191    29.494668    29.494668    29.494668    236.73642   -4069.6827    1335.8663    3287.3709    2.3957382 
   10900   -4277.3093    29.624748    29.624748    29.624748    257.74762   -4019.5617    1454.4292    3223.0832     2.364318 
   11000   -4233.1614    29.778964    29.778964    29.778964    255.82716   -3977.3342    1443.5923    3610.2966    2.3277758 
   11100   -4205.5926    29.941381    29.941381    29.941381    264.87485   -3940.7178     1494.647    2801.0679    2.2900998 
   11200   -4181.3148    30.075961    30.075961    30.075961    269.40458   -3911.9102    1520.2075   -363.12079    2.2594949 
   11300   -4171.6262    30.143765    30.143765    30.143765    277.40633   -3894.2198    1565.3602    367.44027    2.2442819 
   11400    -4164.525    30.191201    30.191201    30.191201    268.46057   -3896.0644    1514.8807   -175.21227      2.23372 
   11500   -4171.2488     30.20611     30.20611     30.20611    263.26949   -3907.9793    1485.5882   -1485.1052    2.2304142 
   11600   -4180.2198    30.188996    30.188996    30.188996    266.46314   -3913.7566    1503.6095   -3091.9973    2.2342096 
   11700   -4182.6632     30.13723     30.13723     30.13723    268.10994   -3914.5533    1512.9021   -1822.2581    2.2457423 
   11800   -4181.7135     30.08459     30.08459     30.08459    269.69785   -3912.0157    1521.8624      1529.73    2.2575512 
   11900   -4178.9755    30.074348    30.074348    30.074348    264.04291   -3914.9326    1489.9525    2914.0382    2.2598585 
   12000   -4179.0016    30.121972    30.121972    30.121972    262.89627   -3916.1053    1483.4822    513.17566    2.2491566 
   12100   -4175.8025    30.164518    30.164518    30.164518    259.33412   -3916.4684    1463.3815    -1582.936     2.239653 
   12200   -4181.0857    30.146126    30.146126    30.146126    269.00409   -3912.0816    1517.9476   -2978.8005    2.2437548 
   12300   -4179.8886     30.08276     30.08276     30.08276    274.19572   -3905.6929    1547.2432    2755.2918    2.2579633 
   12400   -4181.6476    30.086255    30.086255    30.086255    275.35169   -3906.2959    1553.7662    1475.8837    2.2571764 
   12500   -4180.9396    30.119033    30.119033    30.119033    262.69847   -3918.2412     1482.366   -1044.4565     2.249815 
   12600   -4186.0843    30.126652    30.126652    30.126652    260.09412   -3925.9902    1467.6701   -1470.0434    2.2481086 
   12700   -4180.6448    30.103308    30.103308    30.103308    257.77878    -3922.866     1454.605   -794.96548    2.2533426 
   12800   -4177.9104    30.068965    30.068965    30.068965     267.1774    -3910.733    1507.6399    2606.5308    2.2610724 
   12900   -4185.7967    30.077586    30.077586    30.077586    280.90373   -3904.8929    1585.0954    424.79641    2.2591288 
   13000   -4182.5861     30.11047     30.11047     30.11047    268.57984   -3914.0063    1515.5537    -595.8403    2.2517351 
   13100   -4182.2297    30.136817    30.136817    30.136817    259.28805   -3922.9416    1463.1216   -2012.2758    2.2458346 
   13200   -4184.0856     30.12126     30.12126     30.12126    265.44399   -3918.6416    1497.8585   -906.00384    2.2493162 
   13300   -4183.7605    30.091878    30.091878    30.091878    274.41678   -3909.3438    1548.4906   -21.344203    2.2559113 
   13400   -4176.6656    30.093139    30.093139    30.093139     270.3186    -3906.347    1525.3652    2158.2323    2.2556277 
   13500   -4175.1371    30.141718    30.141718    30.141718    268.18446   -3906.9526    1513.3226    119.94308    2.2447392 
   13600   -4167.1808    30.193178    30.193178    30.193178    261.45721   -3905.7236    1475.3618   -1002.9433    2.2332813 
   13700   -4173.4578    30.211843    30.211843    30.211843    276.16632   -3897.2915     1558.363    -2770.644    2.2291447 
   13800   -4166.0985    30.189176    30.189176    30.189176    272.89389   -3893.2047    1539.8972    331.36368    2.2341695 
   13900   -4169.5822    30.164897    30.164897    30.164897     268.0428   -3901.5394    1512.5232     -1078.94    2.2395687 
   14000    -4180.275    30.119002    30.119002    30.119002    265.39577   -3914.8793    1497.5865    1232.5632    2.2498221 
   14100   -4180.8323    30.098309    30.098309    30.098309    258.77396   -3922.0583    1460.2206    77.553416    2.2544656 
   14200   -4181.4926    30.101808    30.101808    30.101808    265.00561   -3916.4869    1495.3849    635.15761    2.2536796 
   14300   -4177.2264    30.111234    30.111234    30.111234    269.53381   -3907.6926    1520.9368   -930.18111    2.2515638 
   14400   -4172.3612     30.10474     30.10474     30.10474    265.62926    -3906.732     1498.904    2561.2514    2.2530212 
   14500   -4180.6239    30.139581    30.139581    30.139581    273.28802   -3907.3359    1542.1212   -2645.9924    2.2452168 
   14600   -4174.3495    30.142248    30.142248    30.142248     262.0639   -3912.2856    1478.7852   -183.53685    2.2446208 
   14700   -4186.9182    30.133894    30.133894    30.133894    269.83831   -3917.0799     1522.655   -2.1181062    2.2464882 
   14800   -4176.8896    30.137196    30.137196    30.137196    256.49261    -3920.397    1447.3474    53.119087    2.2457497 
   14900   -4174.6142    30.130263    30.130263    30.130263    262.21311   -3912.4011    1479.6272   -22.477236    2.2473004 
   15000   -4173.0876    30.100851    30.100851    30.100851    265.60998   -3907.4777    1498.7952    1794.6586    2.2538945 
   15100   -4178.5615    30.092879    30.092879    30.092879    268.64434   -3909.9172    1515.9176    1176.6563    2.2556861 
   15200   -4179.9259     30.12567     30.12567     30.12567    266.60485   -3913.3211    1504.4091    200.11144    2.2483285 
   15300   -4171.4623    30.175185    30.175185    30.175185    258.96941   -3912.4929    1461.3235    158.28343    2.2372787 
   15400   -4172.3943    30.208243    30.208243    30.208243    267.36176   -3905.0326    1508.6802   -2687.0969    2.2299417 
   15500   -4175.7965    30.182982    30.182982    30.182982    276.31601   -3899.4805    1559.2076   -698.09905    2.2355453 
   15600   -4172.8686    30.157122    30.157122    30.157122    270.61972   -3902.2489    1527.0644   -222.33012    2.2413013 
   15700   -4177.1853    30.134667    30.134667    30.134667    263.72846   -3913.4569    1488.1781   -221.45849    2.2463154 
   15800   -4182.1085    30.104605    30.104605    30.104605    261.97129   -3920.1373    1478.2626    20.398355    2.2530514 
   15900   -4180.2601    30.080709    30.080709    30.080709    262.02808    -3918.232    1478.5831   -79.207439    2.2584252 
   16000   -4176.8371    30.075118    30.075118    30.075118     270.3655   -3906.4716    1525.6299    2464.7613    2.2596849 
   16100    -4169.874    30.130429    30.130429    30.130429    270.97287   -3898.9011    1529.0572    2551.0527    2.2472632 
   16200    -4169.158    30.237879    30.237879    30.237879    280.18133   -3888.9766    1581.0191   -3540.2832    2.2233914 
   16300   -4163.7943    30.286133    30.286133    30.286133    277.37629    -3886.418    1565.1906   -3916.3585     2.212781 
   16400     -4163.71    30.235236    30.235236    30.235236    262.92819   -3900.7818    1483.6623    -1190.103    2.2239747 
   16500   -4178.3477    30.144548    30.144548    30.144548    269.44334   -3908.9043    1520.4263    1802.8581    2.2441071 
   16600   -4180.7617    30.113111    30.113111    30.113111    269.58758   -3911.1741    1521.2402    1487.9549    2.2511428 
   16700   -4177.3973    30.120817    30.120817    30.120817    261.92264   -3915.4746    1477.9881   -504.76332    2.2494153 
   16800   -4182.9364    30.103819    30.103819    30.103819    256.68964   -3926.2468    1448.4591   -415.09325    2.2532278 
   16900   -4188.5708    30.077234    30.077234    30.077234    256.70455   -3931.8662    1448.5433    1308.3253     2.259208 
   17000   -4186.3162    30.085483    30.085483    30.085483     266.9333   -3919.3829    1506.2625    1340.8734    2.2573503 
   17100   -4175.9602    30.132503    30.132503    30.132503    265.90824    -3910.052    1500.4782    175.59298    2.2467992 
   17200   -4168.9452    30.185965    30.185965    30.185965    263.18469   -3905.7605    1485.1097   -325.37517    2.2348826 
   17300   -4170.7053     30.21987     30.21987     30.21987    273.36856   -3897.3367    1542.5756   -3004.8505    2.2273687 
   17400   -4170.1035    30.182428    30.182428    30.182428     270.8436   -3899.2599    1528.3277   -340.15505    2.2356684 
   17500   -4179.9425    30.132006    30.132006    30.132006     263.0463   -3916.8962    1484.3288    280.60183    2.2469104 
   17600   -4181.9583     30.10653     30.10653     30.10653    263.43357   -3918.5247    1486.5141    640.19099    2.2526192 
   17700   -4172.8479    30.112815    30.112815    30.112815    261.53666   -3911.3113    1475.8101    2208.5129     2.251209 
   17800   -4164.5524    30.178252    30.178252    30.178252    263.46925   -3901.0832    1486.7154     -744.581    2.2365966 
   17900   -4163.1106    30.230126    30.230126    30.230126     263.7714   -3899.3392    1488.4204   -1693.9689    2.2251025 
   18000   -4159.0319    30.218059    30.218059    30.218059    257.69379   -3901.3381    1454.1254   -92.432124    2.2277694 
   18100   -4172.2361    30.169917    30.169917    30.169917    270.21028   -3902.0258     1524.754    106.90469    2.2384508 
   18200   -4185.2188    30.124126    30.124126    30.124126    266.33883     -3918.88     1502.908    661.13529    2.2486741 
   18300   -4174.4781    30.108179    30.108179    30.108179    249.49285   -3924.9852    1407.8488    1342.1806    2.2522492 
   18400    -4182.125    30.099159    30.099159    30.099159    267.05667   -3915.0684    1506.9586    941.26364    2.2542746 
   18500   -4177.8786    30.114033    30.114033    30.114033    270.18156    -3907.697    1524.5919    851.41519     2.250936 
   18600   -4173.0864    30.165346    30.165346    30.165346      265.294   -3907.7924    1497.0122    99.909418    2.2394686 
   18700   -4174.2487    30.215452    30.215452    30.215452    261.89422   -3912.3544    1477.8278   -3617.0386     2.228346 
   18800   -4180.7407    30.168952    30.168952    30.168952    257.28906   -3923.4516    1451.8416   -3079.3118    2.2386657 
   18900   -4179.2151      30.0579      30.0579      30.0579    257.20588   -3922.0092    1451.3722    3840.0045    2.2635703 
   19000   -4177.1765    30.022152    30.022152    30.022152    266.39441   -3910.7821    1503.2216    4728.8623    2.2716658 
   19100   -4175.8311    30.082143    30.082143    30.082143    266.72569   -3909.1054     1505.091    1310.9436    2.2581021 
   19200   -4177.8886    30.176767    30.176767    30.176767    264.62705   -3913.2616    1493.2487   -1367.2509    2.2369267 
   19300   -4179.2996    30.229925    30.229925    30.229925    263.91356    -3915.386    1489.2226   -5394.8939    2.2251469 
   19400   -4163.6444    30.181713    30.181713    30.181713    259.44419   -3904.2002    1464.0026    594.97424    2.2358272 
   19500   -4169.6773    30.136458    30.136458    30.136458     274.1702   -3895.5071    1547.0992    2335.2633    2.2459147 
   19600   -4168.6262     30.14934     30.14934     30.14934    265.49242   -3903.1337    1498.1318    41.801932    2.2430372 
   19700   -4177.0627    30.170144    30.170144    30.170144    265.02905   -3912.0336    1495.5171    -1625.643    2.2384003 
   19800   -4178.9671    30.156106    30.156106    30.156106     265.4617   -3913.5054    1497.9585   -1056.6395    2.2415278 
   19900   -4181.6827    30.127897    30.127897    30.127897    274.02391   -3907.6587    1546.2737    255.71417    2.2478298 
   20000   -4170.4496    30.121469    30.121469    30.121469    269.82466   -3900.6249     1522.578    2020.8186    2.2492693 
   20001   -4170.3049    30.121619    30.121619    30.121619    269.78122   -3900.5237    1522.3328    2033.9393    2.2492357 
Loop time of 26.1918 on 1 procs for 10000 steps with 1372 atoms

Performance: 32.987 ns/day, 0.728 hours/ns, 381.799 timesteps/s
99.7% CPU use with 1 MPI tasks x 1 OpenMP threads

MPI task timing breakdown:
Section |  min time  |  avg time  |  max time  |%varavg| %total
---------------------------------------------------------------
Pair    | 24.959     | 24.959     | 24.959     |   0.0 | 95.29
Bond    | 0.0011308  | 0.0011308  | 0.0011308  |   0.0 |  0.00
Neigh   | 0.63243    | 0.63243    | 0.63243    |   0.0 |  2.41
Comm    | 0.15206    | 0.15206    | 0.15206    |   0.0 |  0.58
Output  | 0.0023201  | 0.0023201  | 0.0023201  |   0.0 |  0.01
Modify  | 0.39275    | 0.39275    | 0.39275    |   0.0 |  1.50
Other   |            | 0.05191    |            |       |  0.20

Nlocal:    1372 ave 1372 max 1372 min
Histogram: 1 0 0 0 0 0 0 0 0 0
Nghost:    3853 ave 3853 max 3853 min
Histogram: 1 0 0 0 0 0 0 0 0 0
Neighs:    88326 ave 88326 max 88326 min
Histogram: 1 0 0 0 0 0 0 0 0 0

Total # of neighbors = 88326
Ave neighs/atom = 64.3776
Ave special neighs/atom = 0
Neighbor list builds = 267
Dangerous builds = 0

-------------------------------
Total energy (eV) = -4170.30487596182;
Number of atoms = 1372;
Lattice constant (Angstoms) = 30.1216191276011;
Cohesive energy (eV) = -3.03958081338325;
All done!
-------------------------------

4.30308844680016
1522.33284759607
Total wall time: 0:00:56
