LAMMPS (30 Apr 2019)
OMP_NUM_THREADS environment is not set. Defaulting to 1 thread. (../comm.cpp:88)
  using 1 OpenMP thread(s) per MPI task
Starting Energy Min
Lattice spacing in x,y,z = 3.6 3.6 3.6
Created orthogonal box = (0 0 0) to (3.6 3.6 3.6)
  1 by 1 by 1 MPI processor grid
Created 4 atoms
  create_atoms CPU = 0.00121568 secs
Replicating atoms ...
  orthogonal box = (0 0 0) to (25.2 25.2 25.2)
  1 by 1 by 1 MPI processor grid
  1372 atoms
Finding 1-2 1-3 1-4 neighbors ...
  special bond factors lj:   0          0          0         
  special bond factors coul: 0          0          0         
  0 = max # of 1-2 neighbors
  0 = max # of 1-3 neighbors
  0 = max # of 1-4 neighbors
  1 = max # of special neighbors
  special bonds CPU = 0.000149033 secs
  replicate CPU = 0.000587802 secs
WARNING: Using 'neigh_modify every 1 delay 0 check yes' setting during minimization (../min.cpp:168)
Neighbor list info ...
  update every 1 steps, delay 0 steps, check yes
  max neighbors/atom: 2000, page size: 100000
  master list distance cutoff = 8
  ghost atom cutoff = 8
  binsize = 4, bins = 7 7 7
  1 neighbor lists, perpetual/occasional/extra = 1 0 0
  (1) pair eam/fs, perpetual
      attributes: half, newton on
      pair build: half/bin/newton
      stencil: half/bin/3d/newton
      bin: standard
Setting up cg style minimization ...
  Unit style    : metal
  Current step  : 0
WARNING: Energy due to 1 extra global DOFs will be included in minimizer energies
Per MPI rank memory allocation (min/avg/max) = 7.722 | 7.722 | 7.722 Mbytes
Step PotEng Lx Ly Lz Press Pxx Pyy Pzz PotEng 
       0   -4496.8886         25.2         25.2         25.2    48195.375    48195.375    48195.375    48195.375   -4496.8886 
      10   -4504.3876       25.452       25.452       25.452    3640.9033    3640.9033    3640.9033    3640.9033   -4504.3876 
      15   -4504.4354    25.473612    25.473612    25.473612 -2.4280524e-10 -2.4269281e-10 -2.4025581e-10 -2.4546711e-10   -4504.4354 
Loop time of 0.0669685 on 1 procs for 15 steps with 1372 atoms

99.7% CPU use with 1 MPI tasks x 1 OpenMP threads

Minimization stats:
  Stopping criterion = energy tolerance
  Energy initial, next-to-last, final = 
        -4496.88856881     -4504.43543897     -4504.43543897
  Force two-norm initial, final = 1444.17 7.45563e-12
  Force max component initial, final = 1444.17 7.43448e-12
  Final line search alpha, max atom move = 1 7.43448e-12
  Iterations, force evaluations = 15 20

MPI task timing breakdown:
Section |  min time  |  avg time  |  max time  |%varavg| %total
---------------------------------------------------------------
Pair    | 0.064861   | 0.064861   | 0.064861   |   0.0 | 96.85
Bond    | 2.486e-06  | 2.486e-06  | 2.486e-06  |   0.0 |  0.00
Neigh   | 0          | 0          | 0          |   0.0 |  0.00
Comm    | 0.00031894 | 0.00031894 | 0.00031894 |   0.0 |  0.48
Output  | 2.4242e-05 | 2.4242e-05 | 2.4242e-05 |   0.0 |  0.04
Modify  | 0          | 0          | 0          |   0.0 |  0.00
Other   |            | 0.001762   |            |       |  2.63

Nlocal:    1372 ave 1372 max 1372 min
Histogram: 1 0 0 0 0 0 0 0 0 0
Nghost:    4712 ave 4712 max 4712 min
Histogram: 1 0 0 0 0 0 0 0 0 0
Neighs:    120736 ave 120736 max 120736 min
Histogram: 1 0 0 0 0 0 0 0 0 0

Total # of neighbors = 120736
Ave neighs/atom = 88
Ave special neighs/atom = 0
Neighbor list builds = 0
Dangerous builds = 0

-------------------------------
Total energy (eV) = -4504.43543896511;
Number of atoms = 1372;
Lattice constant (Angstoms) = 25.4736121990833;
Lattice constant (Angstoms) of single unit cell = 3.6390874570119;
Cohesive energy (eV) = -3.28311620915824;
All done!
-------------------------------
3.6390874570119
Total wall time: 0:00:00
