LAMMPS (30 Apr 2019)
OMP_NUM_THREADS environment is not set. Defaulting to 1 thread. (../comm.cpp:88)
  using 1 OpenMP thread(s) per MPI task
Starting Energy Min
Lattice spacing in x,y,z = 4 4 4
Created orthogonal box = (0 0 0) to (4 4 4)
  1 by 1 by 1 MPI processor grid
Created 4 atoms
  create_atoms CPU = 0.00121972 secs
Replicating atoms ...
  orthogonal box = (0 0 0) to (28 28 28)
  1 by 1 by 1 MPI processor grid
  1372 atoms
Finding 1-2 1-3 1-4 neighbors ...
  special bond factors lj:   0          0          0         
  special bond factors coul: 0          0          0         
  0 = max # of 1-2 neighbors
  0 = max # of 1-3 neighbors
  0 = max # of 1-4 neighbors
  1 = max # of special neighbors
  special bonds CPU = 0.000150091 secs
  replicate CPU = 0.000585104 secs
WARNING: Using 'neigh_modify every 1 delay 0 check yes' setting during minimization (../min.cpp:168)
Neighbor list info ...
  update every 1 steps, delay 0 steps, check yes
  max neighbors/atom: 2000, page size: 100000
  master list distance cutoff = 8.5
  ghost atom cutoff = 8.5
  binsize = 4.25, bins = 7 7 7
  1 neighbor lists, perpetual/occasional/extra = 1 0 0
  (1) pair eam/fs, perpetual
      attributes: half, newton on
      pair build: half/bin/newton
      stencil: half/bin/3d/newton
      bin: standard
Setting up cg style minimization ...
  Unit style    : metal
  Current step  : 0
WARNING: Energy due to 1 extra global DOFs will be included in minimizer energies
Per MPI rank memory allocation (min/avg/max) = 7.722 | 7.722 | 7.722 Mbytes
Step PotEng Lx Ly Lz Press Pxx Pyy Pzz PotEng 
       0   -4672.7064           28           28           28    30165.987    30165.987    30165.987    30165.987   -4672.7064 
      10   -4679.3367        28.28        28.28        28.28    3080.0363    3080.0363    3080.0363    3080.0363   -4679.3367 
      16   -4679.4213    28.316819    28.316819    28.316819 -0.0012510542 -0.0012510542 -0.0012510542 -0.0012510542   -4679.4213 
Loop time of 0.0725264 on 1 procs for 16 steps with 1372 atoms

97.4% CPU use with 1 MPI tasks x 1 OpenMP threads

Minimization stats:
  Stopping criterion = linesearch alpha is zero
  Energy initial, next-to-last, final = 
        -4672.70642806     -4679.42134051     -4679.42134051
  Force two-norm initial, final = 1239.95 5.25937e-05
  Force max component initial, final = 1239.95 5.25937e-05
  Final line search alpha, max atom move = 0.5 2.62969e-05
  Iterations, force evaluations = 16 22

MPI task timing breakdown:
Section |  min time  |  avg time  |  max time  |%varavg| %total
---------------------------------------------------------------
Pair    | 0.070256   | 0.070256   | 0.070256   |   0.0 | 96.87
Bond    | 2.342e-06  | 2.342e-06  | 2.342e-06  |   0.0 |  0.00
Neigh   | 0          | 0          | 0          |   0.0 |  0.00
Comm    | 0.00035537 | 0.00035537 | 0.00035537 |   0.0 |  0.49
Output  | 2.4425e-05 | 2.4425e-05 | 2.4425e-05 |   0.0 |  0.03
Modify  | 0          | 0          | 0          |   0.0 |  0.00
Other   |            | 0.001888   |            |       |  2.60

Nlocal:    1372 ave 1372 max 1372 min
Histogram: 1 0 0 0 0 0 0 0 0 0
Nghost:    4712 ave 4712 max 4712 min
Histogram: 1 0 0 0 0 0 0 0 0 0
Neighs:    120736 ave 120736 max 120736 min
Histogram: 1 0 0 0 0 0 0 0 0 0

Total # of neighbors = 120736
Ave neighs/atom = 88
Ave special neighs/atom = 0
Neighbor list builds = 0
Dangerous builds = 0

-------------------------------
Total energy (eV) = -4679.42134050724;
Number of atoms = 1372;
Lattice constant (Angstoms) = 28.316818569733;
Lattice constant (Angstoms) of single unit cell = 4.04525979567614;
Cohesive energy (eV) = -3.41065695372248;
All done!
-------------------------------
4.04525979567614
Total wall time: 0:00:00
