LAMMPS (30 Apr 2019)
OMP_NUM_THREADS environment is not set. Defaulting to 1 thread. (../comm.cpp:88)
  using 1 OpenMP thread(s) per MPI task
Lattice spacing in x,y,z = 3.6 3.6 3.6
Created orthogonal box = (0 0 0) to (3.6 3.6 3.6)
  1 by 1 by 1 MPI processor grid
Created 4 atoms
  create_atoms CPU = 0.001179 secs
Replicating atoms ...
  orthogonal box = (0 0 0) to (25.2 25.2 25.2)
  1 by 1 by 1 MPI processor grid
  1372 atoms
Finding 1-2 1-3 1-4 neighbors ...
  special bond factors lj:   0          0          0         
  special bond factors coul: 0          0          0         
  0 = max # of 1-2 neighbors
  0 = max # of 1-3 neighbors
  0 = max # of 1-4 neighbors
  1 = max # of special neighbors
  special bonds CPU = 0.000155411 secs
  replicate CPU = 0.000585389 secs
WARNING: Using 'neigh_modify every 1 delay 0 check yes' setting during minimization (../min.cpp:168)
Neighbor list info ...
  update every 1 steps, delay 0 steps, check yes
  max neighbors/atom: 2000, page size: 100000
  master list distance cutoff = 8
  ghost atom cutoff = 8
  binsize = 4, bins = 7 7 7
  1 neighbor lists, perpetual/occasional/extra = 1 0 0
  (1) pair eam/fs, perpetual
      attributes: half, newton on
      pair build: half/bin/newton
      stencil: half/bin/3d/newton
      bin: standard
Setting up cg style minimization ...
  Unit style    : metal
  Current step  : 0
Per MPI rank memory allocation (min/avg/max) = 7.722 | 7.722 | 7.722 Mbytes
Step Temp E_pair E_mol TotEng Press 
       0            0   -4496.8886            0   -4496.8886    48195.375 
       1            0   -4496.8886            0   -4496.8886    48195.375 
Loop time of 0.00932785 on 1 procs for 1 steps with 1372 atoms

97.4% CPU use with 1 MPI tasks x 1 OpenMP threads

Minimization stats:
  Stopping criterion = energy tolerance
  Energy initial, next-to-last, final = 
        -4496.88856881     -4496.88856881     -4496.88856881
  Force two-norm initial, final = 3.26473e-13 3.08016e-13
  Force max component initial, final = 1.50019e-14 1.47833e-14
  Final line search alpha, max atom move = 1 1.47833e-14
  Iterations, force evaluations = 1 2

MPI task timing breakdown:
Section |  min time  |  avg time  |  max time  |%varavg| %total
---------------------------------------------------------------
Pair    | 0.009203   | 0.009203   | 0.009203   |   0.0 | 98.66
Bond    | 4.13e-07   | 4.13e-07   | 4.13e-07   |   0.0 |  0.00
Neigh   | 0          | 0          | 0          |   0.0 |  0.00
Comm    | 4.9466e-05 | 4.9466e-05 | 4.9466e-05 |   0.0 |  0.53
Output  | 0          | 0          | 0          |   0.0 |  0.00
Modify  | 0          | 0          | 0          |   0.0 |  0.00
Other   |            | 7.501e-05  |            |       |  0.80

Nlocal:    1372 ave 1372 max 1372 min
Histogram: 1 0 0 0 0 0 0 0 0 0
Nghost:    4712 ave 4712 max 4712 min
Histogram: 1 0 0 0 0 0 0 0 0 0
Neighs:    120736 ave 120736 max 120736 min
Histogram: 1 0 0 0 0 0 0 0 0 0

Total # of neighbors = 120736
Ave neighs/atom = 88
Ave special neighs/atom = 0
Neighbor list builds = 0
Dangerous builds = 0
Setting up Verlet run ...
  Unit style    : metal
  Current step  : 1
  Time step     : 0.001
Per MPI rank memory allocation (min/avg/max) = 6.597 | 6.597 | 6.597 Mbytes
Step PotEng Lx Ly Lz KinEng TotEng Temp Press Density 
       1   -4496.8886         25.2         25.2         25.2     266.0007   -4230.8879         1501    65949.541    9.0466912 
     100   -4355.1673         25.2         25.2         25.2    124.31999   -4230.8473    701.51811    87570.595    9.0466912 
     200   -4355.2198         25.2         25.2         25.2    124.37129   -4230.8485    701.80755    86800.313    9.0466912 
     300   -4366.3387         25.2         25.2         25.2    135.48604   -4230.8527    764.52632     86476.94    9.0466912 
     400   -4350.2173         25.2         25.2         25.2    119.37163   -4230.8456     673.5953    87139.302    9.0466912 
     500   -4359.8343         25.2         25.2         25.2    128.98369   -4230.8506    727.83462    86130.089    9.0466912 
     600   -4360.4585         25.2         25.2         25.2    129.60902   -4230.8495    731.36323    86346.345    9.0466912 
     700   -4359.8055         25.2         25.2         25.2    128.95592   -4230.8496    727.67793    86440.282    9.0466912 
     800   -4357.5961         25.2         25.2         25.2    126.74612     -4230.85    715.20834     86358.32    9.0466912 
     900   -4357.4758         25.2         25.2         25.2    126.62626   -4230.8495    714.53201    87623.778    9.0466912 
    1000   -4366.3903         25.2         25.2         25.2     135.5399   -4230.8504    764.83028    86021.565    9.0466912 
    1100   -4356.0036         25.2         25.2         25.2    125.15379   -4230.8498    706.22311    87874.562    9.0466912 
    1200    -4358.454         25.2         25.2         25.2    127.60358   -4230.8504    720.04685    86786.818    9.0466912 
    1300   -4351.0703         25.2         25.2         25.2    120.22348   -4230.8468    678.40212    86786.713    9.0466912 
    1400   -4350.9334         25.2         25.2         25.2    120.08509   -4230.8483    677.62122    87827.466    9.0466912 
    1500   -4363.7601         25.2         25.2         25.2    132.90976   -4230.8503     749.9888    86340.945    9.0466912 
    1600   -4362.1329         25.2         25.2         25.2     131.2829     -4230.85    740.80868     86469.37    9.0466912 
    1700   -4363.0956         25.2         25.2         25.2    132.24383   -4230.8517    746.23106    85957.143    9.0466912 
    1800   -4363.6413         25.2         25.2         25.2    132.79111   -4230.8501     749.3193    85930.069    9.0466912 
    1900   -4358.2609         25.2         25.2         25.2    127.41052   -4230.8504    718.95746    86784.773    9.0466912 
    2000   -4366.8831         25.2         25.2         25.2      136.032   -4230.8511    767.60712    85454.802    9.0466912 
    2100    -4361.913         25.2         25.2         25.2    131.06279   -4230.8502    739.56664    86418.819    9.0466912 
    2200   -4365.5495         25.2         25.2         25.2    134.69825   -4230.8512    760.08099    85871.004    9.0466912 
    2300   -4355.4999         25.2         25.2         25.2     124.6505   -4230.8494    703.38312    86822.695    9.0466912 
    2400   -4361.1867         25.2         25.2         25.2    130.33616   -4230.8505    735.46638     86745.87    9.0466912 
    2500   -4360.0819         25.2         25.2         25.2    129.23205   -4230.8499    729.23605    86429.504    9.0466912 
    2600   -4365.8045         25.2         25.2         25.2     134.9535    -4230.851    761.52129    85592.476    9.0466912 
    2700   -4353.5828         25.2         25.2         25.2    122.73339   -4230.8494    692.56517    87338.825    9.0466912 
    2800    -4359.963         25.2         25.2         25.2    129.11385   -4230.8491    728.56907    85985.897    9.0466912 
    2900   -4360.6939         25.2         25.2         25.2    129.84356   -4230.8504    732.68672    86732.794    9.0466912 
    3000   -4357.9785         25.2         25.2         25.2    127.12908   -4230.8494    717.36936    86804.914    9.0466912 
    3100   -4361.2861         25.2         25.2         25.2    130.43612   -4230.8499    736.03043    86398.098    9.0466912 
    3200   -4357.8923         25.2         25.2         25.2    127.04286   -4230.8494    716.88281    86674.494    9.0466912 
    3300   -4359.9369         25.2         25.2         25.2    129.08692   -4230.8499    728.41712    87459.754    9.0466912 
    3400   -4356.2142         25.2         25.2         25.2    125.36467   -4230.8496    707.41304    87076.042    9.0466912 
    3500   -4364.7095         25.2         25.2         25.2    133.85864   -4230.8509    755.34317    85691.087    9.0466912 
    3600   -4365.2672         25.2         25.2         25.2    134.41634   -4230.8508    758.49019    85517.305    9.0466912 
    3700   -4362.5216         25.2         25.2         25.2    131.67093   -4230.8507     742.9983     86121.39    9.0466912 
    3800   -4357.9554         25.2         25.2         25.2    127.10542     -4230.85    717.23582    87016.326    9.0466912 
    3900   -4368.2794         25.2         25.2         25.2    137.42763   -4230.8517    775.48246    85735.993    9.0466912 
    4000    -4364.502         25.2         25.2         25.2    133.65083   -4230.8511    754.17056     86540.32    9.0466912 
    4100   -4360.5562         25.2         25.2         25.2    129.70588   -4230.8503    731.90983     86700.14    9.0466912 
    4200   -4361.4981         25.2         25.2         25.2    130.64765   -4230.8504    737.22408    86115.265    9.0466912 
    4300   -4359.2193         25.2         25.2         25.2    128.36933     -4230.85     724.3679    86627.059    9.0466912 
    4400   -4359.5177         25.2         25.2         25.2    128.66776   -4230.8499    726.05185    86869.938    9.0466912 
    4500   -4360.8605         25.2         25.2         25.2    130.01014   -4230.8504    733.62673    86523.741    9.0466912 
    4600   -4362.6638         25.2         25.2         25.2    131.81349   -4230.8503     743.8027    86343.501    9.0466912 
    4700   -4357.1167         25.2         25.2         25.2    126.26732   -4230.8494    712.50654    86202.912    9.0466912 
    4800   -4361.0451         25.2         25.2         25.2    130.19512     -4230.85     734.6705    86548.653    9.0466912 
    4900   -4360.4713         25.2         25.2         25.2    129.62195   -4230.8494    731.43621    86517.552    9.0466912 
    5000   -4362.1723         25.2         25.2         25.2    131.32123    -4230.851    741.02496      86442.2    9.0466912 
    5100   -4357.4106         25.2         25.2         25.2    126.56127   -4230.8494    714.16525    87247.451    9.0466912 
    5200   -4360.2465         25.2         25.2         25.2    129.39694   -4230.8496     730.1665    87041.379    9.0466912 
    5300   -4362.5296         25.2         25.2         25.2    131.67868   -4230.8509    743.04199    86387.914    9.0466912 
    5400   -4361.2458         25.2         25.2         25.2    130.39533   -4230.8505    735.80026    86077.896    9.0466912 
    5500   -4361.5857         25.2         25.2         25.2    130.73583   -4230.8499    737.72164    86419.483    9.0466912 
    5600   -4359.4105         25.2         25.2         25.2    128.56056     -4230.85    725.44696    86732.488    9.0466912 
    5700   -4361.8757         25.2         25.2         25.2    131.02563   -4230.8501    739.35695    86122.263    9.0466912 
    5800   -4360.1125         25.2         25.2         25.2    129.26197   -4230.8506    729.40491    87012.332    9.0466912 
    5900    -4361.435         25.2         25.2         25.2    130.58466   -4230.8503    736.86862    86513.135    9.0466912 
    6000   -4360.5306         25.2         25.2         25.2    129.68008   -4230.8506    731.76424    86193.458    9.0466912 
    6100   -4364.7313         25.2         25.2         25.2    133.88031    -4230.851    755.46547    85645.887    9.0466912 
    6200   -4359.6199         25.2         25.2         25.2    128.76915   -4230.8508    726.62398    86015.917    9.0466912 
    6300   -4355.5655         25.2         25.2         25.2    124.71699   -4230.8485    703.75828    86890.578    9.0466912 
    6400   -4356.2869         25.2         25.2         25.2    125.43767   -4230.8492    707.82501    87180.619    9.0466912 
    6500   -4360.0339         25.2         25.2         25.2    129.18462   -4230.8493    728.96842    86430.518    9.0466912 
    6600   -4362.6685         25.2         25.2         25.2    131.81748    -4230.851    743.82521    86584.588    9.0466912 
    6700   -4362.9583         25.2         25.2         25.2    132.10721   -4230.8511    745.46012    85903.222    9.0466912 
    6800   -4359.1931         25.2         25.2         25.2    128.34354   -4230.8495    724.22232    86772.237    9.0466912 
    6900   -4364.7037         25.2         25.2         25.2    133.85204   -4230.8517    755.30592      86711.4    9.0466912 
    7000   -4362.5581         25.2         25.2         25.2    131.70775   -4230.8504    743.20607    86060.301    9.0466912 
    7100   -4359.6431         25.2         25.2         25.2     128.7936   -4230.8495    726.76198    86872.775    9.0466912 
    7200     -4356.67         25.2         25.2         25.2    125.82059   -4230.8494    709.98574    87020.515    9.0466912 
    7300   -4357.7123         25.2         25.2         25.2    126.86273   -4230.8495    715.86636    86610.135    9.0466912 
    7400   -4359.5827         25.2         25.2         25.2    128.73337   -4230.8493    726.42208    86644.218    9.0466912 
    7500   -4361.0658         25.2         25.2         25.2    130.21569   -4230.8501    734.78661    85955.037    9.0466912 
    7600   -4360.0766         25.2         25.2         25.2    129.22645   -4230.8502    729.20444     86960.35    9.0466912 
    7700   -4362.8025         25.2         25.2         25.2    131.95155    -4230.851    744.58176     86188.05    9.0466912 
    7800   -4361.6952         25.2         25.2         25.2     130.8446   -4230.8506    738.33544    86235.774    9.0466912 
    7900   -4362.5019         25.2         25.2         25.2    131.65095    -4230.851    742.88554    86424.249    9.0466912 
    8000   -4360.5181         25.2         25.2         25.2    129.66833   -4230.8498    731.69792    86303.624    9.0466912 
    8100   -4362.0286         25.2         25.2         25.2    131.17814   -4230.8505    740.21752    86285.982    9.0466912 
    8200   -4359.0231         25.2         25.2         25.2    128.17335   -4230.8498    723.26197    86300.219    9.0466912 
    8300   -4358.7942         25.2         25.2         25.2    127.94424     -4230.85    721.96918    86763.007    9.0466912 
    8400   -4360.7006         25.2         25.2         25.2    129.85007   -4230.8505    732.72344    85919.578    9.0466912 
    8500   -4358.5747         25.2         25.2         25.2    127.72558   -4230.8491    720.73528    85953.588    9.0466912 
    8600   -4367.4469         25.2         25.2         25.2    136.59454   -4230.8523    770.78145    85405.049    9.0466912 
    8700   -4359.9308         25.2         25.2         25.2    129.08101   -4230.8498    728.38376    86313.777    9.0466912 
    8800   -4363.0289         25.2         25.2         25.2    132.17774   -4230.8512    745.85813    85760.961    9.0466912 
    8900   -4360.1512         25.2         25.2         25.2    129.30175   -4230.8495    729.62936    85634.196    9.0466912 
    9000   -4360.1606         25.2         25.2         25.2    129.31045   -4230.8501    729.67846    85835.528    9.0466912 
    9100   -4359.1815         25.2         25.2         25.2    128.33172   -4230.8497    724.15567    86493.798    9.0466912 
    9200   -4361.4853         25.2         25.2         25.2    130.63478   -4230.8505    737.15143    86431.491    9.0466912 
    9300   -4359.4501         25.2         25.2         25.2    128.59997   -4230.8501    725.66931    86416.622    9.0466912 
    9400   -4359.4892         25.2         25.2         25.2    128.63935   -4230.8499    725.89158    86366.509    9.0466912 
    9500   -4360.1641         25.2         25.2         25.2     129.3139   -4230.8502    729.69793    86441.542    9.0466912 
    9600   -4358.4648         25.2         25.2         25.2    127.61535   -4230.8495    720.11329    86149.512    9.0466912 
    9700    -4359.501         25.2         25.2         25.2    128.65062   -4230.8504    725.95516    86310.628    9.0466912 
    9800   -4360.6876         25.2         25.2         25.2    129.83724   -4230.8504    732.65106    86404.248    9.0466912 
    9900    -4364.601         25.2         25.2         25.2    133.74979   -4230.8512    754.72897    86112.841    9.0466912 
   10000   -4359.5541         25.2         25.2         25.2    128.70447   -4230.8496    726.25902    86208.992    9.0466912 
   10001   -4359.3974         25.2         25.2         25.2    128.54784   -4230.8496    725.37515    86219.216    9.0466912 
Loop time of 31.0388 on 1 procs for 10000 steps with 1372 atoms

Performance: 27.836 ns/day, 0.862 hours/ns, 322.177 timesteps/s
99.6% CPU use with 1 MPI tasks x 1 OpenMP threads

MPI task timing breakdown:
Section |  min time  |  avg time  |  max time  |%varavg| %total
---------------------------------------------------------------
Pair    | 30.703     | 30.703     | 30.703     |   0.0 | 98.92
Bond    | 0.0010824  | 0.0010824  | 0.0010824  |   0.0 |  0.00
Neigh   | 0          | 0          | 0          |   0.0 |  0.00
Comm    | 0.17442    | 0.17442    | 0.17442    |   0.0 |  0.56
Output  | 0.0026334  | 0.0026334  | 0.0026334  |   0.0 |  0.01
Modify  | 0.096167   | 0.096167   | 0.096167   |   0.0 |  0.31
Other   |            | 0.06128    |            |       |  0.20

Nlocal:    1372 ave 1372 max 1372 min
Histogram: 1 0 0 0 0 0 0 0 0 0
Nghost:    4712 ave 4712 max 4712 min
Histogram: 1 0 0 0 0 0 0 0 0 0
Neighs:    120736 ave 120736 max 120736 min
Histogram: 1 0 0 0 0 0 0 0 0 0

Total # of neighbors = 120736
Ave neighs/atom = 88
Ave special neighs/atom = 0
Neighbor list builds = 0
Dangerous builds = 0
Setting up Verlet run ...
  Unit style    : metal
  Current step  : 10001
  Time step     : 0.001
Per MPI rank memory allocation (min/avg/max) = 6.597 | 6.597 | 6.597 Mbytes
Step PotEng Lx Ly Lz KinEng TotEng Temp Press Density 
   10001   -4359.3974         25.2         25.2         25.2    128.54784   -4230.8496    725.37515    86219.216    9.0466912 
   10100   -4363.4073    25.628297    25.628297    25.628297    133.12282   -4230.2844    751.19105    10244.529    8.6006676 
   10200   -4337.4548    25.870754    25.870754    25.870754    147.05827   -4190.3965    829.82663   -23343.377    8.3611137 
   10300   -4313.7329    25.756917    25.756917    25.756917    167.50024   -4146.2326    945.17741    1509.7981    8.4724641 
   10400   -4289.6438    25.696722    25.696722    25.696722    195.58322   -4094.0605    1103.6453    15905.795    8.5321442 
   10500   -4259.1116    25.825465    25.825465    25.825465    218.02851   -4041.0831    1230.3005    2218.1421    8.4051783 
   10600   -4223.4499    25.935813    25.935813    25.935813    236.70841   -3986.7415    1335.7082   -7753.5607    8.2983508 
   10700   -4196.3393    25.925094    25.925094    25.925094    259.16205   -3937.1773    1462.4106   -631.41082    8.3086479 
   10800   -4174.8053      25.9144      25.9144      25.9144    277.10609   -3897.6992     1563.666    4593.2215    8.3189384 
   10900   -4157.4703    25.968668    25.968668    25.968668    277.91949   -3879.5508    1568.2558   -133.14318    8.2668936 
   11000   -4148.8489    26.011717    26.011717    26.011717    269.93557   -3878.9134    1523.2039   -4770.0725    8.2259174 
   11100   -4153.1226    25.987462    25.987462    25.987462    263.61527   -3889.5073    1487.5394   -2831.8335    8.2489716 
   11200    -4169.664    25.935661    25.935661    25.935661    267.40542   -3902.2586    1508.9266    2081.2241    8.2984972 
   11300   -4169.4412     25.92846     25.92846     25.92846    255.07152   -3914.3697    1439.3283    3863.2479     8.305413 
   11400   -4180.5391    25.954245    25.954245    25.954245    260.93717    -3919.602    1472.4273   -1360.0864    8.2806837 
   11500   -4170.5124    25.951968    25.951968    25.951968    253.43478   -3917.0776    1430.0925   -27.828036    8.2828636 
   11600    -4178.278    25.937674    25.937674    25.937674    273.87427   -3904.4038    1545.4293     1214.381    8.2965646 
   11700   -4156.3274    25.941274    25.941274    25.941274    256.98936    -3899.338    1450.1504     3338.386    8.2931113 
   11800    -4166.521    25.973837    25.973837    25.973837    273.04118   -3893.4799    1540.7283   -1564.9627    8.2619595 
   11900   -4163.0867    25.974053    25.974053    25.974053    264.37014   -3898.7166     1491.799   -3267.8443    8.2617531 
   12000   -4164.9001    25.941437    25.941437    25.941437    261.56569   -3903.3344    1475.9739    1997.8518    8.2929551 
   12100   -4161.7214    25.937248    25.937248    25.937248     254.2349   -3907.4865    1434.6074    2719.0906    8.2969733 
   12200    -4177.777    25.954975    25.954975    25.954975    270.91856   -3906.8584    1528.7507   -1744.8566    8.2799849 
   12300   -4174.6649    25.948891    25.948891    25.948891    263.32828   -3911.3366    1485.9199    5.8067499      8.28581 
   12400   -4176.5944    25.935779    25.935779    25.935779    266.30756   -3910.2868    1502.7315    873.57698    8.2983835 
   12500   -4177.6108    25.939684    25.939684    25.939684    268.67349   -3908.9373    1516.0821     1412.411    8.2946367 
   12600   -4163.2576    25.957017    25.957017    25.957017    254.01681   -3909.2408    1433.3768   -722.41587     8.278031 
   12700   -4172.2236    25.953621    25.953621    25.953621    266.83698   -3905.3866     1505.719   -357.49908     8.281281 
   12800   -4170.3604    25.941535    25.941535    25.941535    267.06185   -3903.2986    1506.9879    1000.0509    8.2928611 
   12900   -4167.6442    25.948766    25.948766    25.948766    265.95331   -3901.6909    1500.7326    783.21074    8.2859304 
   13000   -4164.6636    25.962778    25.962778    25.962778    261.97356     -3902.69    1478.2754   -175.50214    8.2725219 
   13100    -4166.439    25.960307    25.960307    25.960307    261.80088   -3904.6381    1477.3011    -1409.952    8.2748844 
   13200   -4167.2451    25.941852    25.941852    25.941852     262.3227   -3904.9224    1480.2456    1660.1137    8.2925569 
   13300   -4172.1422    25.948287    25.948287    25.948287    269.43717   -3902.7051    1520.3914    86.219492    8.2863891 
   13400   -4172.3244    25.962587    25.962587    25.962587      264.715   -3907.6094     1493.745   -3137.8542    8.2727041 
   13500   -4174.5672    25.949626    25.949626    25.949626    265.31067   -3909.2566    1497.1062    239.14491    8.2851064 
   13600   -4173.9314    25.939178    25.939178    25.939178    267.78554   -3906.1459    1511.0715    1127.6745    8.2951215 
   13700   -4169.9983    25.950088    25.950088    25.950088    266.63287   -3903.3655    1504.5672    251.03475    8.2846634 
   13800   -4161.5639    25.969404    25.969404    25.969404    261.98286    -3899.581    1478.3279   -988.41111     8.266191 
   13900   -4164.5141    25.975975    25.975975    25.975975    272.10485   -3892.4093    1535.4447   -2650.1842    8.2599192 
   14000   -4170.2443    25.949767    25.949767    25.949767    272.44067   -3897.8036    1537.3397    192.80423    8.2849712 
   14100   -4176.4044    25.927503    25.927503    25.927503    262.30559   -3914.0988     1480.149    2628.4775    8.3063321 
   14200   -4177.9027    25.935369    25.935369    25.935369    258.08904   -3919.8137    1456.3557    764.08042    8.2987774 
   14300    -4174.436    25.951145    25.951145    25.951145    261.57474   -3912.8612     1476.025     -613.433    8.2836515 
   14400   -4173.1691    25.959516    25.959516    25.959516    271.22335   -3901.9458    1530.4706   -1400.9258    8.2756404 
   14500   -4165.0685    25.958652    25.958652    25.958652    269.68083   -3895.3877    1521.7664   -1087.4147    8.2764666 
   14600   -4165.8008    25.952698    25.952698    25.952698    268.60242   -3897.1984    1515.6811    467.11344    8.2821642 
   14700   -4165.4151    25.950963    25.950963    25.950963    261.16655   -3904.2485    1473.7216    482.75962    8.2838254 
   14800     -4178.53    25.951754    25.951754    25.951754    270.01787   -3908.5122    1523.6682   -1287.5275    8.2830682 
   14900     -4172.15    25.942044    25.942044    25.942044    256.39652   -3915.7535    1446.8051    1106.5006    8.2923729 
   15000   -4181.2861    25.941985    25.941985    25.941985    266.18219   -3915.1039    1502.0241   -484.78816    8.2924288 
   15100   -4170.3888    25.940861    25.940861    25.940861    262.99103   -3907.3978    1484.0169    2144.1865    8.2935073 
   15200   -4154.7821    25.954629    25.954629    25.954629    261.35504   -3893.4271    1474.7852    1505.7835    8.2803158 
   15300    -4154.297    25.979457    25.979457    25.979457    263.13876   -3891.1582    1484.8505   -1063.1595    8.2565984 
   15400   -4169.0247    25.979467    25.979467    25.979467    272.35922   -3896.6655    1536.8801   -3820.3856    8.2565891 
   15500   -4173.1646    25.933235    25.933235    25.933235    266.48906   -3906.6755    1503.7557    2462.7326    8.3008262 
   15600   -4174.2262    25.915444    25.915444    25.915444    261.60426   -3912.6219    1476.1916    3446.3007    8.3179334 
   15700   -4173.8417     25.95229     25.95229     25.95229    263.08453   -3910.7572    1484.5445   -1539.6598    8.2825547 
   15800   -4169.6091    25.979042    25.979042    25.979042    266.26597   -3903.3431    1502.4969   -3258.4309     8.256994 
   15900   -4161.5714    25.959828    25.959828    25.959828    269.37055   -3892.2009    1520.0155    1066.8728    8.2753417 
   16000   -4162.2442    25.948555    25.948555    25.948555    278.34029   -3883.9039    1570.6303    2961.7415     8.286132 
   16100   -4164.6169     25.97603     25.97603     25.97603    261.00163   -3903.6152     1472.791   -2387.6172    8.2598669 
   16200   -4175.1879    25.975534    25.975534    25.975534    270.06676   -3905.1211    1523.9441    -5113.377      8.26034 
   16300   -4174.5139    25.925019    25.925019    25.925019    270.57619   -3903.9378    1526.8188    4370.9985    8.3087205 
   16400   -4179.2722    25.922569    25.922569    25.922569    269.40271   -3909.8695     1520.197    2224.7857     8.311076 
   16500    -4182.978    25.967094    25.967094    25.967094    269.71286   -3913.2652    1521.9471   -4038.6787    8.2683976 
   16600   -4175.4509    25.969715    25.969715    25.969715    259.56054   -3915.8904    1464.6592   -3580.1129    8.2658937 
   16700    -4171.311    25.923043    25.923043    25.923043    265.90205    -3905.409    1500.4433    3977.9663    8.3106205 
   16800   -4172.8442    25.923977    25.923977    25.923977    273.47965   -3899.3646    1543.2025     6044.458    8.3097224 
   16900   -4163.8021    25.997363    25.997363    25.997363     260.7634   -3903.0387    1471.4467   -5281.3954    8.2395501 
   17000   -4169.7259    26.000391    26.000391    26.000391    264.79208   -3904.9338    1494.1799   -6889.2674    8.2366714 
   17100   -4176.2093    25.907138    25.907138    25.907138    263.15567   -3913.0536    1484.9459     6813.766    8.3259366 
   17200   -4188.2677    25.894403    25.894403    25.894403    269.26333   -3919.0044    1519.4105    6427.0654    8.3382263 
   17300   -4185.6607    25.968205    25.968205    25.968205    260.19758   -3925.4632    1468.2539   -4782.8313    8.2673359 
   17400   -4178.3703     25.98822     25.98822     25.98822    261.68935    -3916.681    1476.6717   -6343.1097    8.2482496 
   17500   -4175.3023    25.928782    25.928782    25.928782    271.53881   -3903.7634    1532.2507    2668.3902    8.3051036 
   17600   -4165.7904    25.912439    25.912439    25.912439    264.29192   -3901.4984    1491.3576    8053.1039    8.3208273 
   17700   -4169.0704    25.992054    25.992054    25.992054     269.0534    -3900.017    1518.2259   -4789.0671    8.2445998 
   17800   -4168.2853    26.011041    26.011041    26.011041    267.90559   -3900.3798     1511.749   -8038.6171    8.2265583 
   17900   -4174.2464    25.924168    25.924168    25.924168     271.4789   -3902.7675    1531.9126     3705.379    8.3095385 
   18000   -4182.0738    25.888637    25.888637    25.888637    269.85133   -3912.2224    1522.7285     8061.687    8.3437987 
   18100   -4185.5764    25.959578    25.959578    25.959578    263.85552   -3921.7209    1488.8951   -3595.4225    8.2755811 
   18200   -4172.6212    25.985042    25.985042    25.985042    252.30183   -3920.3194    1423.6994   -6715.7475    8.2512764 
   18300   -4170.4594    25.924673    25.924673    25.924673    262.25778   -3908.2016    1479.8792     3595.247    8.3090528 
   18400   -4179.3358    25.909497    25.909497    25.909497    277.34945   -3901.9864    1565.0392    5038.1427    8.3236624 
   18500   -4169.7765    25.969869    25.969869    25.969869    263.18222   -3906.5943    1485.0957   -2481.6272    8.2657475 
   18600   -4165.6186    25.990431    25.990431    25.990431    256.11718   -3909.5014    1445.2288   -5896.3479    8.2461448 
   18700   -4174.6561    25.927035    25.927035    25.927035     265.3573   -3909.2988    1497.3694     3799.359    8.3067827 
   18800   -4173.1263     25.90697     25.90697     25.90697    268.90384   -3904.2225    1517.3819    5552.4941    8.3260983 
   18900   -4168.4796     25.96905     25.96905     25.96905    271.97087   -3896.5087    1534.6887   -835.69539     8.266529 
   19000   -4158.1534    26.011294    26.011294    26.011294     265.6494    -3892.504    1499.0177   -6249.3107     8.226318 
   19100   -4151.0041    25.973177    25.973177    25.973177    266.96712    -3884.037    1506.4533    590.84788    8.2625893 
   19200   -4155.8188    25.942614    25.942614    25.942614    274.68288   -3881.1359    1549.9922    5426.2755    8.2918264 
   19300   -4171.8103     25.97024     25.97024     25.97024    272.97014   -3898.8401    1540.3274   -2107.8399    8.2653929 
   19400   -4166.7755    25.969129    25.969129    25.969129    258.95425   -3907.8213    1461.2379    -2045.304    8.2664537 
   19500   -4173.5773    25.932691    25.932691    25.932691    265.27575   -3908.3015    1496.9092    2556.5662    8.3013482 
   19600   -4176.0256    25.931987    25.931987    25.931987    271.64695   -3904.3787    1532.8609    1473.1002    8.3020239 
   19700   -4168.5037    25.961938    25.961938    25.961938    267.95132   -3900.5523     1512.007    96.732657    8.2733245 
   19800   -4169.8411    25.981016    25.981016    25.981016    272.68879   -3897.1523    1538.7398    -3871.559    8.2551127 
   19900   -4170.9226    25.952416    25.952416    25.952416    265.37568   -3905.5469    1497.4731    29.592073    8.2824341 
   20000   -4178.4443    25.922116    25.922116    25.922116    262.77716   -3915.6672      1482.81    3189.4912    8.3115123 
   20001   -4178.4018    25.921962    25.921962    25.921962     262.6474   -3915.7544    1482.0779    3220.7494      8.31166 
Loop time of 31.1685 on 1 procs for 10000 steps with 1372 atoms

Performance: 27.720 ns/day, 0.866 hours/ns, 320.837 timesteps/s
99.7% CPU use with 1 MPI tasks x 1 OpenMP threads

MPI task timing breakdown:
Section |  min time  |  avg time  |  max time  |%varavg| %total
---------------------------------------------------------------
Pair    | 30.028     | 30.028     | 30.028     |   0.0 | 96.34
Bond    | 0.0011497  | 0.0011497  | 0.0011497  |   0.0 |  0.00
Neigh   | 0.50786    | 0.50786    | 0.50786    |   0.0 |  1.63
Comm    | 0.16834    | 0.16834    | 0.16834    |   0.0 |  0.54
Output  | 0.0027336  | 0.0027336  | 0.0027336  |   0.0 |  0.01
Modify  | 0.40325    | 0.40325    | 0.40325    |   0.0 |  1.29
Other   |            | 0.05766    |            |       |  0.18

Nlocal:    1372 ave 1372 max 1372 min
Histogram: 1 0 0 0 0 0 0 0 0 0
Nghost:    4702 ave 4702 max 4702 min
Histogram: 1 0 0 0 0 0 0 0 0 0
Neighs:    115311 ave 115311 max 115311 min
Histogram: 1 0 0 0 0 0 0 0 0 0

Total # of neighbors = 115311
Ave neighs/atom = 84.0459
Ave special neighs/atom = 0
Neighbor list builds = 167
Dangerous builds = 0

-------------------------------
Total energy (eV) = -4178.40182029164;
Number of atoms = 1372;
Lattice constant (Angstoms) = 25.9219622310997;
Cohesive energy (eV) = -3.04548237630586;
All done!
-------------------------------

3.70313746158567
1482.07786282049
Total wall time: 0:01:02
