1372
Atoms. Timestep: 100
1 28.6861 0.202086 0.11202
1 1.93322 2.74702 28.8875
1 2.10793 0.670047 2.53397
1 28.5779 2.20514 2.44187
1 2.19857 -0.305657 0.422575
1 6.84308 2.74507 0.265683
1 6.55885 29.0357 2.08493
1 4.32969 2.23797 1.60621
1 8.53451 29.1075 0.0533229
1 10.2595 2.27131 28.575
1 9.24711 28.7389 2.58591
1 8.21135 2.38736 2.5611
1 12.5563 0.290025 28.7055
1 14.4124 2.3164 0.207209
1 14.3902 0.364391 2.32046
1 11.884 1.20276 2.30224
1 16.592 0.0338022 28.8711
1 18.7594 2.11061 29.1663
1 18.7295 28.9145 1.7217
1 16.6609 1.95844 1.8018
1 21.0517 0.204273 28.6872
1 22.85 2.28836 28.6202
1 22.525 0.596275 1.67099
1 20.5396 2.16374 2.23971
1 25.1576 28.6937 29.1011
1 26.8137 2.48663 -0.0957909
1 27.2021 -0.0341936 1.99383
1 25.2249 2.11221 2.28111
1 28.4216 4.71449 -0.206593
1 2.06889 5.75622 28.826
1 2.17961 4.26334 2.03818
1 28.8582 6.02509 2.09468
1 4.09368 4.45486 28.3746
1 6.11354 6.12377 28.0044
1 5.75716 4.57655 1.74557
1 3.81272 6.5781 2.28748
1 8.8821 4.1709 28.4507
1 10.4283 6.48288 28.8056
1 10.4277 3.74178 2.0106
1 8.10262 6.08937 1.67976
1 12.0482 4.09477 0.115971
1 14.4689 6.19414 29.1757
1 14.7967 3.97764 2.02221
1 13.0887 6.14565 2.47009
1 16.6968 4.0261 28.8826
1 19.0711 6.08883 28.7858
1 18.4617 4.52824 2.20238
1 16.6177 6.36747 1.79814
1 20.7421 4.22601 -0.328694
1 23.0076 6.35795 0.222798
1 23.1639 3.83621 1.83271
1 20.3532 6.14811 2.20369
1 24.5903 4.46629 28.9483
1 26.6566 6.38143 0.233893
1 26.6492 4.39891 1.95398
1 24.5918 5.96498 2.60693
1 0.063945 8.11564 -0.0653281
1 2.65218 10.8343 0.358714
1 1.7122 8.45364 2.06716
1 0.30164 10.565 1.67903
1 4.07257 8.13549 28.8168
1 5.89006 10.239 28.6852
1 6.15251 8.16824 1.73271
1 3.59561 10.5557 2.7073
1 7.88384 8.09332 28.5706
1 10.2631 10.652 0.453409
1 9.8761 8.17604 1.66104
1 7.91061 10.2156 1.94876
1 12.4353 8.11671 0.206703
1 14.6351 10.2108 28.4267
1 14.909 8.27152 2.27387
1 12.4755 10.3919 2.13793
1 16.4473 8.41174 28.8949
1 18.978 10.6083 28.483
1 18.7008 7.93881 1.69536
1 16.9438 10.1133 1.66258
1 21.0244 8.20416 0.145614
1 23.0262 10.182 0.263171
1 22.611 7.913 2.5461
1 20.8508 10.6241 1.76496
1 24.9603 8.19895 0.594181
1 26.8548 10.0384 -0.00459991
1 27.3197 8.64821 2.14682
1 25.2888 10.47 2.10285
1 0.246838 12.3954 29.0368
1 2.65357 13.8057 29.3272
1 2.34439 12.6948 3.1905
1 0.6754 14.7821 1.74142
1 5.22297 12.5577 0.326756
1 7.44642 14.3729 -0.00376496
1 6.45895 12.2561 2.32307
1 3.7717 15.1006 2.41647
1 7.81424 12.0312 0.402223
1 9.80805 15.2854 0.129756
1 10.4264 12.7924 2.42561
1 8.15205 14.439 2.63198
1 12.6787 12.8197 0.709619
1 14.5341 13.8926 0.182621
1 14.8928 11.4424 1.99437
1 12.4688 14.5172 2.50948
1 16.806 11.9151 28.3402
1 18.5017 13.9329 28.8881
1 18.4143 12.7409 2.03013
1 15.6068 14.3731 2.43582
1 20.8278 12.7265 0.690163
1 23.0678 13.7614 0.422596
1 23.1996 12.2287 2.26018
1 20.5764 14.6093 3.34375
1 25.0094 12.0692 28.9105
1 27.1866 14.6482 29.1249
1 27.4315 12.6721 1.67239
1 24.9525 14.405 2.13926
1 0.0219773 17.0087 28.291
1 2.13671 18.5379 28.645
1 2.23244 16.9214 1.58061
1 0.16237 18.8189 1.56751
1 3.83822 16.3553 28.3994
1 5.83582 18.4829 0.18712
1 5.98486 16.205 1.75688
1 3.78605 18.8935 1.63206
1 7.7953 17.5766 28.2463
1 10.6265 18.7553 0.486603
1 10.211 16.4314 2.68091
1 8.12735 17.7188 1.72886
1 12.6214 16.8124 28.7316
1 14.5403 18.4275 28.807
1 14.5131 16.3486 1.90857
1 12.0876 17.8571 2.15768
1 17.1061 16.5306 0.490156
1 18.3147 19.2417 0.757184
1 18.8916 15.873 2.32589
1 16.6193 18.332 2.39242
1 20.8258 15.6838 0.422846
1 23.2636 18.4248 0.356512
1 23.1777 16.3269 1.95259
1 20.7545 17.9508 1.77319
1 25.2229 16.539 -0.0352317
1 27.0754 18.4681 28.6096
1 27.638 16.5724 1.969
1 25.5628 18.4249 2.15051
1 0.113607 20.4841 28.6918
1 2.1497 22.7575 0.479189
1 2.03779 20.9283 2.21264
1 -0.172825 22.7291 2.36581
1 4.12132 21.4294 28.6663
1 6.17574 23.094 0.21465
1 6.13286 20.5764 2.06629
1 4.39263 22.5086 2.17409
1 8.21523 20.1742 0.279979
1 11.0131 22.7656 28.7753
1 10.4991 20.3275 2.18822
1 9.14106 21.9284 1.52293
1 12.6766 20.1542 0.323047
1 15.1869 23.0741 0.000541819
1 13.8588 19.4099 2.29376
1 12.7849 22.6442 1.85452
1 15.4913 20.9531 0.894434
1 18.0255 23.2185 28.714
1 18.2471 21.0695 2.83121
1 16.5483 23.2684 2.19912
1 20.6717 20.3746 0.554034
1 22.7316 22.9578 0.143032
1 23.4988 20.5745 1.89061
1 20.1726 22.9228 1.80565
1 25.1892 20.6003 28.8447
1 27.3899 22.7711 29.1218
1 27.1535 20.6342 1.86186
1 25.5297 22.5458 1.64657
1 0.226946 24.8975 29.0296
1 2.09155 26.5968 28.8034
1 1.94651 24.994 1.97754
1 1.15092 27.2533 2.02826
1 4.0938 24.7909 29.0043
1 5.95746 27.1794 0.238324
1 5.78033 25.2403 2.21643
1 3.59532 27.5426 2.18533
1 8.59979 24.5176 28.6096
1 10.6293 27.1773 29.0849
1 10.3548 24.3419 1.88441
1 8.36234 26.1726 1.74593
1 12.084 25.2696 0.292353
1 14.1472 27.3206 0.250973
1 14.5376 24.8613 2.1349
1 12.0117 26.8075 2.37928
1 16.7638 25.8929 28.8666
1 19.1081 27.3302 28.4652
1 18.6707 25.3387 1.543
1 16.4512 27.2697 2.18051
1 20.6531 24.9132 28.7955
1 22.7911 27.4439 28.9974
1 22.7391 25.1283 1.65544
1 20.8884 26.9383 1.9136
1 25.3811 24.9637 0.368646
1 27.2349 26.9885 0.369519
1 27.7587 24.7614 1.88221
1 24.0632 27.1355 1.97592
1 28.4629 28.9339 4.28656
1 1.64101 2.61836 4.35821
1 2.04806 29.002 4.99237
1 28.7955 2.34291 6.2087
1 4.4628 0.484846 3.72873
1 5.96009 2.39399 3.92409
1 6.40356 28.5226 6.3655
1 3.57819 2.13401 6.09871
1 8.21365 28.9576 4.78692
1 10.4079 1.78367 4.06246
1 10.108 28.8451 6.58351
1 8.34429 2.22461 5.80906
1 12.4783 -0.476809 4.34774
1 14.5806 1.84701 4.07669
1 14.0901 28.1576 6.31586
1 12.4252 1.56359 6.03155
1 16.825 0.4812 3.82913
1 18.5116 2.47034 3.97889
1 18.9155 0.0501455 5.59977
1 16.4103 1.38677 6.44165
1 20.7223 29.2997 3.6125
1 22.4828 2.00085 4.48561
1 22.4491 28.9216 6.1066
1 20.8281 2.16639 6.46513
1 24.2401 0.233803 4.22264
1 26.7472 1.91871 4.5573
1 26.7908 28.7537 6.49244
1 24.6989 1.81666 6.2659
1 28.3561 4.52161 4.357
1 2.12363 6.2903 4.46717
1 1.74725 4.33558 6.07508
1 -0.0471133 5.95992 6.37582
1 4.21048 4.35826 4.10857
1 6.64781 5.85296 4.31471
1 5.9073 4.64259 6.58774
1 4.29019 6.29253 6.04302
1 8.88653 4.65337 3.90814
1 11.0082 5.72394 4.19004
1 10.5283 3.89049 6.27016
1 8.50361 5.7737 6.41902
1 12.7793 3.6075 4.4272
1 14.1474 6.34957 4.64867
1 14.8648 3.94789 5.92411
1 12.507 5.96853 6.33701
1 16.5148 4.84301 4.02597
1 18.6775 6.32793 4.28604
1 18.5475 4.06532 6.95026
1 16.5853 5.98397 6.55822
1 20.531 4.1724 4.51878
1 22.3434 5.61379 3.81579
1 22.9062 4.22952 6.26312
1 21.0342 6.56547 5.96409
1 24.8021 3.90854 4.54609
1 26.9681 6.52747 4.02745
1 26.8358 4.53614 6.2717
1 24.8489 6.35597 5.6296
1 29.0792 7.85207 4.09079
1 1.40454 10.3049 4.54001
1 2.21694 8.53814 6.06488
1 0.191639 11.0098 6.91587
1 4.12962 8.53552 4.21182
1 6.27554 10.2329 4.13609
1 6.04441 8.69151 6.04966
1 4.40809 10.7507 6.21829
1 8.45405 8.24292 4.22307
1 10.1148 10.307 3.78473
1 10.1523 8.47718 6.10806
1 8.0094 10.6573 6.02956
1 11.914 8.31092 3.70766
1 14.6059 9.70268 4.30962
1 14.6353 7.91528 6.73492
1 12.3376 9.80654 5.73617
1 17.0555 8.17385 4.21183
1 18.68 10.4597 3.87461
1 19.34 8.6649 5.87461
1 16.9415 10.4129 6.01107
1 20.519 8.26696 3.9857
1 22.8879 10.2315 3.64013
1 22.9081 8.40323 5.76657
1 21.3605 10.3119 6.2796
1 25.5217 9.0775 4.27414
1 27.9287 10.2906 4.44968
1 26.9327 8.29246 6.05757
1 24.1621 10.9551 6.2861
1 29.0359 13.0261 4.06003
1 2.28088 15.0845 4.53263
1 2.00521 12.4022 6.09908
1 29.0666 14.8171 6.23508
1 4.81351 12.4164 4.45619
1 6.08518 14.5446 4.26698
1 6.54805 13.0127 6.35616
1 4.05926 14.8857 6.4982
1 8.11494 12.3475 4.25809
1 10.0821 14.6048 4.47238
1 10.202 12.1268 5.91553
1 8.45748 14.8268 6.77282
1 12.7987 12.0318 4.24317
1 15.0032 15.0013 4.80451
1 14.6588 12.6514 6.18942
1 12.183 14.3053 6.11765
1 16.2661 12.3536 4.12548
1 18.0152 14.2682 4.18294
1 18.6891 12.3067 6.11407
1 16.9031 14.3479 6.9404
1 20.7074 12.4549 4.27852
1 23.0199 15.1665 4.16266
1 23.3273 12.6968 4.69489
1 19.7733 14.5814 6.04824
1 26.0408 12.2865 4.05658
1 27.0456 14.9658 3.91211
1 27.3328 12.701 6.30769
1 25.0357 14.1421 5.97965
1 28.976 16.9234 3.95677
1 2.0123 18.8993 3.92364
1 2.12708 17.1686 6.41267
1 0.0100889 18.8918 6.136
1 3.94458 17.2032 4.68395
1 5.81778 18.5828 3.51408
1 6.16412 16.8627 6.66292
1 4.28813 19.2587 6.91662
1 8.1616 16.8795 4.87803
1 10.4623 18.8506 4.17254
1 10.7939 16.939 6.26252
1 8.40338 18.231 6.73535
1 12.6021 16.8672 4.41787
1 14.7005 18.3617 4.45964
1 14.2435 16.6858 6.51344
1 12.627 18.9066 6.4376
1 17.0178 16.7094 4.36836
1 18.6331 19.0317 3.99002
1 18.9416 17.2616 6.54094
1 16.704 19.0529 6.44303
1 21.1194 17.0879 4.19329
1 23.186 18.6544 3.43728
1 22.3457 16.0177 6.57086
1 20.9151 18.9875 6.04675
1 24.7536 16.7047 4.3297
1 26.9438 18.798 4.61922
1 26.7453 16.6312 6.52844
1 24.5242 18.368 6.65853
1 28.8808 20.7027 3.86357
1 2.35215 22.9832 3.77996
1 2.15503 19.89 6.06834
1 0.199318 23.0856 6.37942
1 4.25334 20.6842 4.14327
1 7.0705 23.0923 2.7333
1 6.51323 19.9016 6.37637
1 3.68029 22.8575 5.89607
1 8.04487 19.4755 4.16761
1 10.443 22.0032 4.10592
1 10.3761 20.9104 6.7766
1 7.91607 22.0436 4.87606
1 12.5153 20.6902 4.63876
1 14.1084 22.9705 3.97367
1 14.6892 21.1423 6.47892
1 12.5376 22.8575 6.64885
1 15.9385 20.7897 3.94239
1 18.6402 23.2269 4.33495
1 17.9268 21.2459 6.00329
1 16.3343 23.1538 6.19501
1 20.6551 20.8678 3.56117
1 22.7617 22.632 3.3674
1 22.7825 21.0998 5.75689
1 20.3061 22.8557 6.2475
1 25.0799 20.6691 4.24325
1 26.6691 22.9316 4.15228
1 27.5688 21.402 6.69011
1 24.6168 22.6887 6.55558
1 28.7028 24.3182 4.46528
1 1.83745 25.9583 4.55771
1 2.12919 24.5548 6.68944
1 28.2911 26.2973 6.07974
1 4.2999 24.7357 4.46814
1 5.80242 27.2081 3.91476
1 6.64221 25.1472 5.24027
1 4.08068 27.3318 5.8813
1 8.71613 24.5799 4.21142
1 9.90952 26.8708 4.25404
1 10.4197 24.2747 6.52266
1 8.61044 26.703 6.79551
1 11.9677 24.4817 4.26899
1 14.4256 27.1624 3.6902
1 14.0969 25.189 5.71362
1 11.6755 26.4925 5.83078
1 16.6948 25.0049 4.21635
1 18.9126 27.1429 3.98078
1 18.2952 25.2828 6.02273
1 16.4308 27.5357 5.75297
1 20.7305 24.6209 3.81927
1 22.6626 26.8857 3.91358
1 22.7374 24.1874 5.86141
1 21.0533 26.6011 6.08469
1 24.6132 24.9256 3.90962
1 26.9762 26.1804 3.66428
1 26.2001 24.8903 6.40773
1 24.2622 26.6669 6.08625
1 0.295558 29.1748 7.44304
1 2.80586 2.3656 8.43202
1 2.89718 28.7582 10.0808
1 0.619354 1.17632 10.1139
1 4.56923 0.233528 8.1382
1 6.94578 1.78689 7.66567
1 5.74977 28.4061 10.727
1 4.93654 2.12346 10.3105
1 8.29621 28.5858 8.54457
1 10.6311 1.95567 8.11545
1 10.3844 28.6573 11.1289
1 9.2117 1.48935 10.0799
1 12.1077 28.4448 8.52655
1 14.4589 1.31644 8.48607
1 14.8605 28.6939 10.7202
1 12.521 1.32276 10.1996
1 16.7034 -0.0997645 8.66061
1 18.7617 1.81989 8.75027
1 18.5208 29.0266 10.4952
1 16.1262 2.10795 10.675
1 20.6294 28.9055 8.29139
1 22.3127 2.33784 8.32589
1 22.2329 0.292329 10.5168
1 20.6403 2.94605 9.95409
1 25.0016 0.178626 8.51731
1 27.109 2.2981 8.19454
1 27.3561 -0.0120548 9.90281
1 25.0289 2.14339 10.1365
1 0.569303 3.89813 8.40798
1 2.19777 6.75011 8.15103
1 2.36511 4.17368 10.7677
1 0.569415 5.89506 10.6084
1 3.71156 4.74051 8.04881
1 5.92673 6.2346 8.33859
1 5.50129 4.85858 10.382
1 3.69584 6.82977 10.3745
1 8.38894 3.58662 8.52041
1 10.6017 5.68211 8.61588
1 11.0254 3.87075 10.3163
1 8.25596 6.58775 9.67691
1 13.0751 3.41918 7.63881
1 14.4902 5.72965 8.46387
1 13.7706 4.39064 10.5364
1 12.4619 6.49762 10.6769
1 16.2768 3.32457 8.42398
1 19.0352 6.74877 7.80075
1 18.2196 4.52 9.70682
1 16.6859 6.34795 9.81507
1 20.9974 4.80576 8.22007
1 23.0863 6.47926 7.91842
1 23.0688 4.12347 10.2975
1 20.6221 6.15505 10.4194
1 24.791 3.88769 8.23167
1 26.9177 5.86954 8.54987
1 27.3294 4.00432 10.5906
1 24.819 6.17537 10.5015
1 28.9886 8.56169 7.89046
1 2.0704 9.97661 8.45058
1 1.49046 8.58273 10.4834
1 28.5725 10.4538 9.8425
1 4.50291 8.24535 8.44574
1 6.52498 10.2366 8.77946
1 6.13155 8.02191 10.3596
1 4.14878 9.76321 10.2491
1 8.08377 8.41559 7.80952
1 10.1501 10.2253 8.78156
1 10.1956 8.34426 11.0892
1 8.2781 9.94324 10.7458
1 11.6341 7.96523 8.33707
1 14.6441 10.2286 8.16547
1 14.7365 8.1146 9.71749
1 12.7787 9.962 10.1797
1 16.9206 8.41436 7.89105
1 18.8817 10.4672 7.93575
1 18.7905 8.04679 10.3541
1 16.8769 9.90384 10.1114
1 20.7904 8.33454 8.30986
1 22.8318 10.6565 8.69049
1 22.481 7.92895 10.3857
1 20.4133 10.5776 10.4763
1 25.1651 8.26281 8.05188
1 26.9854 10.234 7.92534
1 27.3367 7.70793 10.1588
1 25.0461 9.93729 10.2634
1 28.7039 13.1137 9.06436
1 1.72897 14.9072 8.62269
1 1.79329 11.816 10.6641
1 28.8611 14.9801 10.6355
1 3.43498 13.0197 8.76198
1 5.95022 14.5045 8.37318
1 5.51641 12.3327 10.3061
1 3.11896 14.524 10.703
1 8.23207 12.4507 8.4342
1 10.6245 14.0356 8.65315
1 10.0547 11.9099 10.4286
1 7.83525 13.7047 10.7221
1 12.2598 12.021 7.41095
1 14.182 14.6805 8.02765
1 14.2923 12.5919 10.5756
1 12.5405 14.7027 10.1675
1 16.4155 12.2504 8.62693
1 18.7334 13.8211 8.87699
1 18.0463 12.1775 10.8559
1 16.2897 14.5654 10.1606
1 20.8004 12.6137 7.87323
1 22.9501 13.9249 7.67061
1 22.8095 12.3761 10.4215
1 21.1792 14.3913 10.2465
1 25.095 12.7932 8.95915
1 26.998 14.5413 8.30599
1 26.7111 12.3825 10.6384
1 24.9396 14.1899 10.8235
1 28.8777 17.0424 8.09514
1 2.48532 18.8203 9.00392
1 2.41728 16.9133 10.8111
1 28.8467 18.4382 10.6321
1 3.88086 16.2763 8.45016
1 6.40605 18.1488 8.7439
1 5.66673 16.8884 10.5361
1 4.37711 18.8843 11.1969
1 8.35154 16.1072 8.77984
1 10.7662 18.6047 8.32606
1 10.7744 16.7014 10.5576
1 8.5836 18.4253 10.3902
1 12.2833 16.7381 8.38597
1 14.3091 19.2272 8.35594
1 14.7282 16.6801 9.8251
1 12.8387 18.7502 10.973
1 16.666 16.3301 8.27579
1 18.6316 18.6261 8.35785
1 18.6164 16.9192 9.85422
1 16.5541 18.8411 10.089
1 20.3056 15.9111 8.27016
1 22.7952 17.717 8.24089
1 23.1742 16.2516 10.5074
1 20.3588 18.0135 11.0362
1 24.7503 15.9214 8.04514
1 26.9894 19.0103 7.80438
1 26.538 16.3244 10.5986
1 24.8509 18.5102 9.21133
1 0.255914 19.9636 8.56447
1 1.93626 22.9149 8.7596
1 1.90366 20.4987 10.9459
1 0.0388851 22.7367 10.5435
1 3.88662 21.227 8.95843
1 6.26692 22.7526 7.50794
1 6.41291 20.6341 9.69936
1 3.67539 23.1136 10.6684
1 8.63266 20.524 8.32283
1 10.0152 22.6404 8.63632
1 10.1035 20.3778 10.5319
1 7.60867 23.2009 10.115
1 12.2317 20.7561 8.6947
1 14.1899 23.0323 8.64197
1 14.7722 20.8535 10.5919
1 12.3962 22.8568 10.5267
1 16.2824 21.4857 8.45168
1 18.6472 22.8087 8.56531
1 18.8298 20.5226 10.3418
1 16.7849 23.2086 10.5734
1 20.6643 20.7043 8.28544
1 22.1539 22.8762 8.1558
1 22.8425 20.5026 10.1068
1 20.876 22.3825 10.5503
1 24.2475 20.7481 8.1708
1 26.4578 22.8686 8.71692
1 27.3754 20.8708 10.4109
1 24.2876 22.6491 10.1993
1 28.5978 24.7264 8.43294
1 2.27926 26.9588 7.85971
1 1.7626 24.9423 9.84606
1 0.228179 27.0779 9.16871
1 4.4876 24.9063 7.30036
1 6.30506 26.4875 7.89631
1 6.02541 25.0151 9.9016
1 4.06172 26.5057 9.72191
1 8.43854 24.7714 8.17848
1 10.2577 26.7366 9.36619
1 10.1975 24.6779 10.7716
1 8.0658 26.6003 10.4473
1 12.3604 24.8475 8.56769
1 14.5679 26.3319 8.16103
1 14.3259 25.2019 10.5065
1 12.8928 26.9933 11.5556
1 16.5456 25.0664 8.15892
1 18.1918 27.0731 7.97685
1 18.7772 25.1691 10.7222
1 16.6278 26.6589 10.3198
1 20.6369 25.0661 8.44963
1 22.6131 27.2043 8.2737
1 22.5766 24.8563 10.3396
1 20.6675 26.9904 10.3027
1 24.5712 24.5166 8.54336
1 26.4827 26.8925 8.45903
1 27.2005 25.5985 10.7454
1 24.7836 27.5648 10.7245
1 0.480422 28.0006 12.1839
1 1.80631 1.25875 12.9338
1 1.63027 28.8605 14.7532
1 0.0446373 2.82393 14.9429
1 3.885 28.4009 12.5285
1 6.46871 1.62075 12.248
1 6.06683 0.127737 15.1127
1 3.48788 1.74573 14.8258
1 8.6148 0.249256 12.6773
1 10.3389 2.26487 12.5258
1 10.7448 28.9388 14.4094
1 7.61828 1.97327 14.5015
1 12.6491 0.835273 12.7542
1 14.5364 2.75007 12.6011
1 13.4563 28.721 14.9658
1 12.4053 2.68323 14.3867
1 16.9034 28.6191 12.5285
1 18.8524 2.14748 11.9982
1 18.2986 29.0615 14.6274
1 16.5099 2.15647 14.415
1 20.7538 28.8791 12.7435
1 22.1394 2.24461 12.1573
1 22.3073 0.352543 14.8644
1 20.3362 2.11692 14.5427
1 24.5022 0.61197 12.2581
1 27.3427 1.52592 12.3852
1 27.0286 0.307513 14.659
1 25.0019 2.32562 14.5668
1 0.478239 3.32194 12.4816
1 2.09647 6.13765 12.7341
1 2.24624 3.9856 14.7037
1 0.0460482 6.22032 14.7067
1 4.04044 3.70495 12.4653
1 6.04776 5.81883 12.6751
1 5.7684 3.66923 14.0302
1 4.09553 5.80678 14.4028
1 8.03516 3.61482 11.2007
1 9.7144 5.83854 12.0715
1 10.1104 4.10065 14.3749
1 8.05409 6.1865 14.0143
1 12.0373 4.47106 12.6749
1 14.6814 6.3353 12.0633
1 14.524 4.62867 14.3096
1 12.3601 6.30491 14.3107
1 16.5592 4.3979 12.1634
1 18.4722 6.08514 12.5278
1 18.7733 4.02535 14.7575
1 16.4178 6.77576 14.3071
1 20.5284 4.37569 12.9583
1 22.7665 5.99684 12.2785
1 22.92 4.36959 14.3579
1 20.9976 6.4681 14.2186
1 24.9445 4.03843 12.4411
1 27.3908 5.8006 12.5378
1 27.1309 4.13968 14.4461
1 25.3309 6.26802 14.0703
1 0.3568 8.12713 12.6645
1 2.13053 10.2378 12.6753
1 2.3457 8.14406 14.8143
1 0.0130928 10.1292 14.4012
1 3.91232 7.98845 12.664
1 5.99712 10.7735 12.1865
1 5.7478 8.18287 14.826
1 4.48505 10.4522 14.7228
1 7.73214 8.68244 12.9991
1 10.9798 10.5415 12.4209
1 10.2555 7.85274 13.9827
1 8.53721 10.4967 14.4714
1 12.6158 8.31261 12.4671
1 13.7743 10.8736 12.3543
1 14.4241 8.23933 14.5178
1 12.3127 10.0131 15.0403
1 16.2253 8.49776 12.3151
1 18.6984 10.2584 12.8761
1 18.7201 7.90208 14.1839
1 16.4867 10.169 14.2402
1 20.7705 8.43316 12.3749
1 22.5884 10.4138 12.2918
1 22.8839 8.87656 14.0246
1 20.9254 10.6974 14.6283
1 24.741 8.03717 12.2853
1 27.1064 10.0716 12.1786
1 27.077 8.30223 14.3579
1 25.049 10.2105 14.4969
1 28.8276 12.2047 12.4992
1 1.23878 15.2023 12.6764
1 1.41449 12.3603 14.6084
1 28.7288 14.6964 14.8602
1 3.19479 12.5763 12.68
1 5.722 13.5267 12.736
1 6.50699 12.1561 14.818
1 4.49299 15.2216 14.919
1 8.43487 12.5188 12.9797
1 10.3367 14.7048 12.2089
1 11.0568 12.2993 14.8733
1 8.72397 14.8819 14.2324
1 12.0902 13.0751 12.0818
1 15.2327 14.4745 12.1868
1 13.7567 12.2423 14.5562
1 12.3702 14.9711 14.2399
1 16.7483 12.3412 12.9702
1 18.7992 14.7609 11.9648
1 18.7549 12.0934 15.1043
1 16.3818 14.5775 14.231
1 20.7471 12.4706 12.6058
1 22.8579 14.5124 12.4495
1 22.8243 12.4003 14.2781
1 20.454 14.5657 14.4689
1 24.6162 11.9038 12.3557
1 27.1513 14.8014 12.8215
1 26.7846 12.4142 14.3818
1 25.2918 14.9195 14.3432
1 29.0714 17.3108 13.2829
1 2.31628 19.1342 13.1733
1 2.41931 16.8439 14.7723
1 0.175454 19.3211 14.7721
1 4.00914 16.7621 12.9979
1 6.89472 18.5106 12.3854
1 6.61644 16.6439 14.3184
1 4.46896 18.8297 14.6836
1 8.01571 15.919 11.6208
1 10.2759 18.7276 12.4362
1 10.3331 16.8487 14.3138
1 8.60873 18.8435 14.9679
1 12.989 16.3524 12.3162
1 15.0801 19.0514 12.3753
1 14.695 16.426 14.5753
1 12.4978 18.2634 14.0431
1 16.4615 16.982 12.3714
1 18.4584 18.7277 12.6706
1 18.6945 16.5424 14.0466
1 16.5442 18.7307 14.7948
1 21.1801 16.44 12.9728
1 22.6598 18.6519 12.2367
1 22.8825 16.0924 14.5512
1 20.5127 18.9063 14.1295
1 24.8152 16.7064 12.531
1 26.964 19.0008 12.5881
1 26.9595 17.2049 14.4015
1 25.0435 18.9992 14.2077
1 28.8467 21.6319 12.734
1 2.28896 23.2555 12.5761
1 2.20637 21.3688 14.4274
1 28.4601 22.5579 15.2547
1 4.28205 21.0048 12.5446
1 6.28102 22.7702 13.1964
1 6.61811 20.5655 14.3839
1 4.50863 22.5821 14.835
1 7.61215 20.8556 11.5969
1 10.0999 22.4731 12.2685
1 10.7871 20.4984 14.4119
1 8.72856 22.475 14.4501
1 12.1815 20.7522 12.25
1 14.4619 22.9125 12.7922
1 14.7698 20.6712 14.1277
1 12.2612 22.9729 14.3009
1 16.9172 21.1241 12.4485
1 18.9787 22.8324 12.5291
1 18.7868 21.1083 14.5156
1 16.8214 23.1884 14.2953
1 20.5 20.6392 12.2773
1 22.7144 22.1043 12.484
1 22.7167 20.4754 14.9268
1 21.7542 22.8623 14.8567
1 24.8729 20.3833 11.7165
1 26.295 22.4253 12.3626
1 26.9824 20.7549 14.9378
1 24.8779 21.949 14.6097
1 28.5051 24.5662 12.4527
1 2.47516 26.3706 12.2139
1 1.46858 24.3374 15.3041
1 28.7588 26.7436 14.468
1 4.82573 24.9131 12.5595
1 6.34741 27.3137 12.84
1 6.19598 25.2889 14.8163
1 3.81711 26.7026 14.93
1 7.88011 25.4185 12.6382
1 10.1892 26.8961 12.753
1 10.1959 24.6906 14.0524
1 8.45934 26.5121 14.8938
1 12.1946 24.6037 12.4578
1 14.9033 27.3698 13.4641
1 14.1913 25.0162 14.1882
1 11.9578 26.3219 14.7929
1 16.3956 25.0973 12.3235
1 18.8138 26.854 12.7061
1 19.1832 24.9734 14.7915
1 17.1288 26.9939 15.0402
1 20.8486 24.9416 12.8812
1 22.5928 27.3746 12.3271
1 23.1367 25.0702 14.4839
1 20.621 26.9654 14.6302
1 24.664 24.8186 12.194
1 26.3552 27.4736 12.4514
1 26.2481 24.9746 14.393
1 24.4846 27.2961 14.3371
1 28.4466 0.301884 16.8743
1 2.24768 2.23328 16.7929
1 1.73862 0.218548 18.4621
1 0.137607 2.23291 18.3638
1 3.86261 29.0066 16.7599
1 6.47797 1.90442 17.4039
1 5.99754 29.0888 18.6468
1 3.60578 1.75699 19.0483
1 8.55861 -0.0110426 16.1593
1 10.0254 2.56298 16.553
1 10.2593 0.164094 18.2973
1 8.33976 2.03822 19.3867
1 12.2257 0.712469 16.8607
1 14.9729 2.09687 16.2777
1 14.6317 0.182268 18.4259
1 12.6699 2.51842 18.9991
1 17.5056 0.481719 17.1478
1 19.306 2.87995 17.3825
1 19.5381 0.0943959 19.1023
1 16.6029 2.2547 18.5083
1 20.2362 0.18904 16.4109
1 23.065 2.60625 16.1938
1 23.3198 28.5399 18.7995
1 21.5694 1.64626 18.2851
1 24.6469 0.294747 16.2193
1 27.0338 2.4078 16.6
1 26.5817 29.214 18.4569
1 24.8174 2.35089 18.3485
1 29.048 4.3742 16.8216
1 2.13968 6.01232 16.6293
1 1.87028 4.40098 19.0878
1 29.0966 6.39285 18.4153
1 4.3478 3.7944 16.829
1 6.52345 5.73653 16.3102
1 5.68373 4.51553 19.1294
1 3.67739 5.82949 18.8867
1 8.23827 3.84175 17.8006
1 10.0004 5.79738 16.4241
1 10.2464 4.11001 19.2171
1 8.37079 6.815 18.5037
1 12.5947 4.50051 16.4221
1 14.5001 6.02817 16.2478
1 14.6419 4.17376 18.5751
1 12.424 5.7304 18.8782
1 16.7122 4.25901 16.4831
1 18.1581 6.15341 16.2821
1 18.289 3.95932 19.3958
1 16.4013 6.13749 18.7053
1 21.0422 4.82486 16.029
1 23.0816 6.73777 16.0848
1 22.5898 5.08985 17.7427
1 20.1696 6.20205 18.3777
1 25.0804 4.83884 16.2073
1 27.2269 6.54539 16.4476
1 26.8479 4.36847 18.4236
1 25.0899 6.19042 18.3404
1 0.32511 8.44137 16.6066
1 3.16892 9.77168 16.5832
1 2.51571 8.54329 18.7428
1 0.56154 10.1723 18.6058
1 4.46253 7.56253 17.3085
1 5.8096 10.0923 17.0776
1 6.06983 7.86614 19.3663
1 4.15654 10.0018 19.3116
1 8.31614 8.33646 16.1858
1 10.3831 9.43369 17.171
1 10.7044 7.85815 19.0002
1 8.24039 9.94051 18.5478
1 12.3649 7.71248 16.7034
1 14.1934 10.228 16.9961
1 13.846 8.04058 18.977
1 12.5212 9.96517 18.8152
1 16.1506 8.36084 17.0866
1 18.387 9.9952 16.6629
1 18.0921 8.56634 18.6678
1 16.4177 10.4254 18.54
1 20.2962 8.16335 16.4146
1 22.7218 10.0467 16.7428
1 22.8518 7.95824 18.8447
1 21.0011 10.5383 18.6877
1 25.0753 8.86113 16.5056
1 26.9938 10.466 16.557
1 27.3656 8.50066 18.6014
1 24.8634 10.5996 18.7788
1 0.217486 11.7492 16.8144
1 2.04626 14.3919 16.3559
1 2.38812 11.7795 18.2266
1 29.079 14.1703 18.1412
1 4.02122 12.4239 15.9292
1 6.32394 15.0098 16.7256
1 5.98307 12.5964 17.672
1 3.73419 14.199 18.1937
1 9.17196 11.7708 16.9068
1 10.7207 14.486 16.3593
1 10.5204 12.3695 18.6912
1 8.74779 14.0983 17.7629
1 12.5472 12.0538 17.1813
1 14.1276 14.5173 16.2821
1 14.4566 12.6366 18.8173
1 12.4823 14.5344 18.3646
1 16.4944 12.342 16.0964
1 18.7814 14.7745 16.4344
1 18.1928 12.3879 17.937
1 16.9358 14.5877 18.2515
1 20.8565 12.2904 16.5397
1 22.5419 14.51 16.5482
1 23.0043 12.7152 18.6734
1 20.807 14.619 18.2475
1 24.2709 12.021 16.3014
1 26.683 15.1378 16.7438
1 26.9127 12.3514 18.8738
1 24.7679 15.0627 18.1107
1 0.299338 16.8912 16.1912
1 2.52926 19.1252 16.4827
1 1.4389 16.1931 18.8148
1 0.885296 18.6666 18.7293
1 4.2653 16.7293 16.9619
1 6.15095 18.9038 16.5688
1 6.84932 16.6272 18.4791
1 4.15642 18.7133 18.7853
1 8.72344 16.7359 16.9522
1 10.7244 18.9451 16.6326
1 10.63 17.0374 18.3355
1 8.52626 18.7002 18.9265
1 12.3291 16.7811 16.0904
1 14.2533 19.0856 16.485
1 13.8066 17.3627 18.4097
1 12.6444 19.7198 19.0453
1 16.2131 16.7026 16.629
1 18.3711 18.9954 16.3765
1 18.6073 17.4594 18.6347
1 16.3779 18.3932 18.7224
1 20.2222 16.8966 16.4159
1 22.7867 18.5714 16.1495
1 22.6103 16.8746 17.9858
1 20.7366 19.009 18.3618
1 25.1493 17.1817 16.526
1 27.6752 18.8256 16.6293
1 27.2784 16.718 18.7839
1 24.9955 19.1925 19.7761
1 0.17703 20.7489 17.0283
1 2.42754 22.5137 16.4687
1 2.71753 21.0089 19.3007
1 28.7071 22.6905 19.3916
1 4.40319 20.9813 16.7799
1 6.76402 22.7149 16.2868
1 6.49712 20.9294 18.8633
1 4.1137 23.3956 19.0653
1 8.72372 20.6726 16.7356
1 10.6173 23.4036 16.5945
1 10.5109 21.1645 18.6837
1 8.65083 22.7853 18.9695
1 12.3118 21.436 16.5512
1 14.8243 23.0201 15.8603
1 14.8759 20.9241 18.6384
1 12.8704 22.9382 18.7374
1 16.4856 20.8942 15.9866
1 18.484 22.7494 16.5014
1 17.9464 20.8277 18.4366
1 16.0911 23.0041 18.2423
1 20.5048 20.699 16.2889
1 23.7977 23.155 16.6103
1 22.8447 20.7793 17.749
1 20.9389 22.6167 18.3674
1 25.3034 19.9556 16.9508
1 26.9506 22.4978 17.3553
1 27.4424 20.5464 19.1284
1 24.7899 22.2746 19.1379
1 28.3621 24.8491 16.6136
1 1.40913 26.811 16.1993
1 1.681 24.5206 18.2212
1 0.238763 26.9619 18.6441
1 4.23359 24.4498 16.2557
1 6.50924 26.8853 16.5082
1 6.12633 24.833 18.4669
1 3.61192 26.482 18.743
1 8.3542 24.5904 17.0397
1 10.1541 26.7162 16.6631
1 10.3534 24.8766 19.1605
1 8.59425 26.7815 18.8136
1 13.1055 24.5406 16.5959
1 14.8638 27.6417 16.7213
1 14.6433 25.5931 18.389
1 12.0717 27.2192 18.2241
1 16.9848 24.9468 16.436
1 18.9069 26.9923 17.1946
1 18.5591 24.3416 18.559
1 16.8794 27.0463 18.9992
1 20.8535 24.8943 16.7122
1 22.9894 26.9861 16.2228
1 23.1995 25.0013 18.6021
1 21.5067 26.7319 18.4165
1 25.7476 24.611 16.7498
1 27.1634 27.0004 16.5059
1 27.2375 24.9072 19.0891
1 25.0492 26.7042 18.1737
1 28.5996 0.42401 21.2763
1 1.75816 2.2261 20.7626
1 1.55043 0.331906 23.0025
1 28.3587 2.0245 23.1069
1 4.23862 28.7807 20.9151
1 6.17178 1.98622 20.7285
1 6.41163 28.33 22.4583
1 4.02137 2.02527 22.5174
1 8.0571 28.7268 20.4823
1 10.7103 1.46542 21.097
1 10.2153 -0.162769 23.6092
1 8.31132 1.95717 22.4591
1 12.5698 -0.159833 19.8969
1 14.5759 2.09598 20.5901
1 14.7107 0.229675 22.6638
1 12.4684 1.84347 22.7461
1 16.3242 29.2354 20.949
1 18.4959 1.92628 20.9983
1 19.3034 0.192522 22.581
1 16.7494 1.95783 23.2025
1 21.2457 28.466 20.8763
1 22.7662 2.61275 20.6078
1 23.0765 29.0924 23.252
1 21.0274 2.32182 22.6134
1 24.9622 0.427729 20.5118
1 26.729 2.39368 20.7852
1 26.6015 28.684 22.9074
1 24.6768 2.32258 22.8348
1 0.271807 4.2813 21.0493
1 1.58435 6.49401 21.0818
1 1.64973 3.55417 23.1642
1 29.047 6.33266 22.9852
1 3.51837 4.45661 21.2221
1 5.86122 6.18134 21.2901
1 5.9341 4.25284 22.4494
1 3.44931 5.91724 23.1131
1 7.8449 4.59675 20.3998
1 10.2243 6.2105 21.2605
1 10.1863 3.71757 22.7519
1 8.10544 6.47209 22.5744
1 12.3848 4.27368 21.2528
1 14.5459 5.91152 21.0763
1 14.653 3.76733 22.7738
1 12.639 6.26734 23.0281
1 16.3891 3.98576 20.8101
1 18.4975 6.3809 20.296
1 18.7926 4.04562 22.6946
1 16.9191 6.03262 22.4403
1 21.0451 4.53644 20.1494
1 23.1357 6.13683 20.3425
1 22.591 4.86147 22.7449
1 20.3688 6.27156 22.3917
1 24.9278 4.16826 20.2499
1 27.1781 6.18338 20.5842
1 26.9165 4.53291 22.8921
1 24.8452 5.92138 22.5511
1 28.7253 8.57454 21.1481
1 2.19696 10.189 20.7371
1 1.81014 8.47641 23.1885
1 28.7044 10.6828 23.3688
1 3.78476 7.62269 21.0158
1 5.33348 10.0901 21.5437
1 5.52958 8.20157 23.1162
1 4.01577 10.4786 23.474
1 8.01713 8.19947 20.8961
1 10.5892 10.109 20.9203
1 9.92966 8.56663 23.1747
1 7.73989 10.3516 22.7503
1 12.3966 8.32771 21.6733
1 14.642 10.3046 20.5159
1 15.2686 8.11365 22.4729
1 13.0189 10.524 22.6051
1 17.1884 9.45964 20.9008
1 19.4855 11.4727 20.742
1 18.9018 8.403 22.7368
1 15.9388 11.1707 23.1197
1 20.3299 8.40227 20.7598
1 22.8116 10.6404 20.7136
1 22.8142 8.04798 22.2993
1 20.895 10.5651 22.9819
1 24.9617 8.26656 20.358
1 26.7009 10.286 20.4887
1 27.1746 7.74868 22.6692
1 25.3761 10.23 22.6379
1 -0.0193122 12.0436 21.3317
1 1.95263 13.886 20.5948
1 2.33384 12.2234 22.9588
1 0.643414 14.3581 22.9053
1 4.58351 12.6052 20.4971
1 6.78333 14.2767 20.2563
1 6.08502 12.716 22.5857
1 4.36507 14.5072 22.4018
1 8.4257 12.0726 20.4757
1 9.97384 14.7179 20.1073
1 10.3824 12.3549 22.3933
1 8.31548 14.6858 22.6166
1 12.3362 12.6133 20.5781
1 14.8105 14.9626 20.2776
1 14.7466 12.8575 21.8591
1 12.173 14.7381 22.2625
1 17.0064 12.3071 20.5644
1 19.0813 14.7267 19.849
1 19.4692 12.9 23.1644
1 17.0938 13.9747 22.8543
1 21.4798 13.1775 20.9049
1 23.8095 14.8144 21.2326
1 23.5129 12.8255 22.7826
1 21.1762 14.7066 22.8052
1 24.9084 12.4025 20.533
1 26.9494 14.7242 20.2224
1 26.7401 12.5616 22.5366
1 25.4657 14.8606 22.6601
1 0.250121 16.892 20.8654
1 2.5623 18.864 20.8143
1 2.08371 16.4066 22.5516
1 0.0895026 19.1609 22.8723
1 3.61549 16.0912 20.166
1 5.75311 18.1194 20.6263
1 6.4217 16.454 23.1419
1 4.163 18.7189 23.0426
1 8.34616 16.7008 20.847
1 10.4793 18.4671 20.9662
1 10.4303 16.5411 22.5836
1 8.2499 18.5504 22.8743
1 12.5933 16.4975 20.3191
1 14.6124 18.1925 21.0945
1 14.5643 16.255 22.9673
1 12.7027 18.7414 23.2562
1 16.9795 16.2655 21.1124
1 18.6499 18.5072 21.1032
1 18.7533 15.7866 22.772
1 16.7663 18.2317 23.0819
1 21.5952 16.063 20.6239
1 22.4628 19.2445 20.3485
1 23.1937 16.5247 22.9445
1 21.059 18.3176 22.3125
1 25.2785 16.7381 20.6387
1 27.3952 18.9805 20.9604
1 27.456 17.1209 22.7121
1 25.5962 19.6669 23.1968
1 0.425298 20.8039 20.8448
1 2.30738 23.1253 20.547
1 2.27377 20.7936 22.8948
1 0.453725 23.0796 22.8043
1 4.71451 20.6424 20.9061
1 6.25182 23.0527 20.7313
1 6.39362 19.7941 23.1973
1 3.8404 23.1676 22.6663
1 8.38859 20.4317 20.696
1 10.4925 22.7262 21.0096
1 10.232 20.4948 22.4199
1 8.22512 22.4795 22.2462
1 12.5456 20.7076 21.6355
1 14.6359 22.6091 20.836
1 15.0213 20.5534 22.7702
1 12.1224 23.5296 22.5477
1 16.6389 20.4008 20.7273
1 18.7183 22.6849 20.3829
1 19.346 19.8754 23.1142
1 17.3841 22.2842 22.9881
1 20.6645 20.9592 20.9457
1 22.5358 22.6548 20.3533
1 22.1032 20.4875 23.2125
1 20.8505 22.6292 22.996
1 24.2631 21.1951 21.6809
1 26.3692 22.9755 21.1744
1 27.3942 21.2683 22.7312
1 24.055 23.7568 22.8147
1 0.358076 25.0811 20.9181
1 1.46008 28.012 20.8376
1 1.84914 25.2855 23.3439
1 28.7035 26.7638 22.8293
1 3.47051 25.2169 21.1131
1 5.97138 26.5589 20.1811
1 5.99204 25.3795 22.5559
1 3.69895 27.5281 22.8549
1 8.44389 24.8802 21.1775
1 10.3982 27.0933 21.2682
1 10.0741 25.2481 22.9857
1 8.23021 26.4253 24.0594
1 12.6497 25.0963 20.3145