1372
Atoms. Timestep: 100
1 -0.0168549 0.190144 0.0962477
1 1.96446 2.49779 -0.0060415
1 1.97297 0.410296 2.47774
1 -0.295477 2.05296 2.20721
1 3.2566 -0.0301565 0.153422
1 6.56827 2.25717 0.0422606
1 6.35316 -0.0171877 2.04561
1 4.23465 2.28227 1.89865
1 8.27556 0.0333621 -0.0168875
1 10.3043 2.09381 -0.294845
1 9.88176 -0.189755 2.22043
1 8.21884 2.26896 2.27657
1 12.329 0.00984339 0.0636903
1 14.5357 2.28267 0.151512
1 14.4377 0.140524 2.20306
1 12.2491 1.86029 2.1133
1 16.6181 0.0340877 -0.0831992
1 18.6597 2.10703 0.0050451
1 18.7732 0.124698 1.91091
1 16.6617 2.06958 1.97609
1 20.9212 0.126843 -0.0959874
1 22.8909 2.23285 -0.175629
1 22.6791 0.221663 1.83711
1 20.5795 2.01808 2.13747
1 25.0132 -0.0896101 -0.00874144
1 26.8502 2.23162 -0.000313267
1 27.1768 -0.0237215 1.99644
1 25.005 2.12744 2.08173
1 -0.384523 4.45912 -0.0992428
1 2.04495 5.99424 -0.154833
1 2.2359 4.22128 1.97665
1 -0.120322 6.11587 2.06641
1 4.06604 4.32734 -0.265109
1 6.15742 6.25709 -0.492074
1 6.07397 4.32491 1.99763
1 4.09693 6.28747 2.07494
1 8.58256 4.09424 -0.280173
1 10.4607 6.34342 -0.161805
1 10.4954 4.01147 2.06767
1 8.25045 6.23669 1.87502
1 12.2285 4.06633 -0.00520315
1 14.4577 6.31712 0.0260838
1 14.5884 4.0975 2.15629
1 12.6226 6.19623 2.26162
1 16.6655 4.06079 -0.12416
1 18.8721 6.14831 -0.125794
1 18.6695 4.42965 2.09903
1 16.5669 6.32363 1.93212
1 20.7208 4.20724 -0.185906
1 22.9063 6.32761 0.0452183
1 22.8881 4.07081 2.00423
1 20.5086 6.11687 2.21586
1 24.6935 4.38462 -0.00594579
1 26.8035 6.33084 0.0658845
1 26.7154 4.23397 1.95998
1 24.7452 6.13909 2.30332
1 0.0308846 8.2654 -0.0209219
1 2.23031 10.6129 0.230651
1 1.90212 8.35772 2.08472
1 0.176882 10.4643 1.87257
1 4.07056 8.23585 -0.150877
1 6.02516 10.3185 -0.0848457
1 6.23856 8.17878 1.97119
1 3.99539 10.4639 2.27517
1 8.11974 8.28387 -0.340489
1 10.2867 10.4857 0.182809
1 10.106 8.22759 1.90922
1 8.0509 10.3632 2.02423
1 12.3855 8.25981 7.18907e-05
1 14.6438 10.275 -0.310759
1 14.7956 8.26706 2.07345
1 12.474 10.3332 2.08303
1 16.5519 8.36709 -0.158433
1 18.745 10.3485 -0.299476
1 18.686 8.13602 1.88856
1 16.595 10.2198 1.8837
1 20.8363 8.29558 -0.0402961
1 22.8552 10.3125 0.109905
1 22.6582 8.22893 2.25915
1 20.7892 10.559 1.91611
1 24.8955 8.27079 0.126064
1 26.9526 10.2308 0.0307763
1 27.1001 8.44176 2.13213
1 25.1547 10.3597 2.12948
1 0.185233 12.3885 0.107424
1 2.36111 14.342 0.178939
1 2.26021 12.5631 2.4887
1 0.295828 14.7104 1.87088
1 4.60358 12.4083 0.127127
1 6.75787 14.5392 -0.0113764
1 6.36214 12.3518 2.25464
1 4.15236 14.8222 2.22489
1 8.1884 12.3271 0.286963
1 9.98991 14.6452 0.114499
1 10.3482 12.5998 2.15065
1 8.24878 14.4732 2.38323
1 12.531 12.7634 0.353486
1 14.4472 14.2618 0.216593
1 14.6968 11.9909 2.05845
1 12.5123 14.494 2.32083
1 16.7227 12.1726 -0.394408
1 18.5573 14.1804 -0.0797018
1 18.6122 12.5292 2.08575
1 16.1631 14.4659 2.20053
1 20.8736 12.4285 0.137557
1 23.001 14.1136 0.249174
1 23.0479 12.337 2.27676
1 20.6743 14.5706 2.65811
1 24.98 12.3137 -0.0818186
1 27.1074 14.5283 0.00692492
1 27.3146 12.6154 1.90444
1 24.98 14.5254 2.06257
1 0.164081 16.7234 -0.360668
1 2.10718 18.6439 -0.180189
1 2.23685 16.7431 1.75812
1 0.0653572 18.7494 1.82148
1 4.05645 16.4155 -0.206875
1 6.03024 18.5329 -0.0833136
1 6.02172 16.5166 2.00651
1 3.92353 18.7828 1.93023
1 8.29056 17.0558 -0.310962
1 10.4743 18.6842 0.193024
1 10.285 16.5224 2.34769
1 8.18438 18.3798 1.94008
1 12.4941 16.6867 -0.190567
1 14.4661 18.3913 -0.0956483
1 14.5664 16.4573 2.13641
1 12.351 18.3041 2.11412
1 16.9166 16.5491 0.217293
1 18.4242 18.8122 0.413798
1 18.7585 16.4216 2.31483
1 16.6541 18.4853 2.33551
1 20.8241 16.1932 0.232708
1 23.0611 18.4475 0.205111
1 23.0313 16.4572 2.0753
1 20.8048 18.4129 1.99368
1 25.0936 16.5386 0.0134449
1 27.0716 18.5809 -0.290125
1 27.2612 16.6535 2.04705
1 25.2481 18.5412 2.10813
1 0.0727984 20.5854 -0.170268
1 2.18693 22.8414 0.0152614
1 2.12797 20.7833 2.0615
1 -0.0607859 22.8146 2.23708
1 4.12206 21.0278 -0.212515
1 6.25598 22.8777 0.0911047
1 6.12967 20.585 2.00882
1 4.19357 22.6628 2.08222
1 8.31789 20.6057 0.130918
1 10.5809 22.7112 -0.162578
1 10.4301 20.4445 1.92015
1 8.69477 22.3857 1.95848
1 12.5124 20.4631 0.306987
1 14.7357 22.9136 0.0409142
1 14.2303 20.2536 2.14315
1 12.6416 22.692 1.96356
1 16.1566 20.814 0.309974
1 18.3761 22.9087 -0.163147
1 18.4528 20.8682 2.35878
1 16.4418 23.0844 2.10933
1 20.6377 20.5938 0.241185
1 22.8297 22.9327 0.0882296
1 23.1127 20.6346 2.0618
1 20.4794 22.9067 1.95169
1 25.0575 20.6871 -0.109973
1 27.1693 22.8001 0.0883028
1 27.0635 20.6766 2.00229
1 25.2449 22.6809 1.83387
1 0.183341 24.8556 0.0358471
1 1.96926 26.8715 -0.123827
1 1.98875 24.8578 2.02126
1 0.366499 27.0173 1.9407
1 4.06134 24.8958 -0.0281102
1 6.01071 27.0997 0.0712117
1 6.11264 24.9559 2.01362
1 3.77922 27.2573 2.06612
1 8.49339 24.871 -0.202485
1 10.4935 27.0513 0.0892337
1 10.4306 24.6788 1.95007
1 8.40801 26.7551 1.87357
1 12.3038 25.026 0.112169
1 14.3924 27.073 0.100618
1 14.4973 24.9119 2.22146
1 12.2335 26.9787 2.16294
1 16.7061 25.2953 -0.128331
1 18.8078 27.2001 -0.309393
1 18.6906 25.096 1.8027
1 16.5832 27.1434 2.08466
1 20.6567 24.8475 -0.104913
1 22.9035 27.2204 -0.0900823
1 22.6868 24.9596 1.86894
1 20.8371 27.07 1.90943
1 25.096 24.955 0.168464
1 27.1721 26.9843 0.258498
1 27.2865 24.819 1.99818
1 24.5588 26.9038 1.99007
1 -0.314226 -0.0964482 4.28834
1 1.96203 2.26125 4.08257
1 2.04554 0.106134 5.7899
1 -0.0892392 2.20578 6.21994
1 4.30392 0.231582 3.94094
1 6.11085 2.2177 4.01346
1 6.38106 -0.108772 6.25782
1 3.93667 2.11372 6.17033
1 8.26579 -0.0616963 4.36977
1 10.3687 1.8332 4.111
1 10.2489 -0.167674 6.40944
1 8.31363 2.04889 6.21254
1 12.4137 -0.242235 4.20839
1 14.5257 1.91426 4.05636
1 14.4754 -0.383905 6.16623
1 12.4643 1.82136 6.13103
1 16.6334 0.170276 3.97663
1 18.6744 2.19005 4.03844
1 18.8066 -0.0520014 5.9862
1 16.5047 1.76729 6.31164
1 20.6932 0.183072 3.91869
1 22.6843 2.01287 4.36385
1 22.6301 -0.0360774 6.15312
1 20.7978 2.15488 6.36922
1 24.5485 0.110172 4.23622
1 26.8284 1.951 4.37944
1 26.8739 -0.16627 6.41311
1 24.8547 1.95062 6.25408
1 -0.358298 4.39195 4.22246
1 2.02184 6.19993 4.28819
1 1.9294 4.21334 6.15089
1 -0.0418582 6.04887 6.23255
1 4.16225 4.2653 4.11601
1 6.43538 6.1691 4.23846
1 6.14322 4.47837 6.35302
1 4.15515 6.24015 6.13342
1 8.53026 4.37211 4.00325
1 10.4448 6.08687 4.17047
1 10.5462 3.95507 6.23317
1 8.4491 6.00481 6.26817
1 12.6394 3.87035 4.17834
1 14.3514 6.22007 4.41005
1 14.5841 3.91677 6.12016
1 12.4495 6.09552 6.19941
1 16.6677 4.36903 4.13232
1 18.6342 6.28184 4.19899
1 18.5258 4.15981 6.48125
1 16.6315 6.14379 6.36839
1 20.6546 4.18952 4.26527
1 22.6816 6.04528 4.14508
1 22.9508 4.19077 6.17911
1 20.8574 6.45604 6.08346
1 24.8068 3.98664 4.39851
1 27.0133 6.3779 4.16702
1 26.929 4.29833 6.19588
1 24.8651 6.28652 5.92449
1 0.0580476 8.16602 4.09907
1 1.83952 10.3491 4.34504
1 2.05396 8.39518 6.17264
1 0.0732374 10.6696 6.54378
1 4.11755 8.45547 4.2011
1 6.22535 10.4515 4.17775
1 6.19184 8.4372 6.15879
1 4.28268 10.4835 6.09007
1 8.40625 8.26757 4.12571
1 10.2264 10.3255 3.97486
1 10.237 8.17473 6.12064
1 8.1916 10.5535 6.09001
1 12.2522 8.29987 4.05451
1 14.5298 9.9673 4.14928
1 14.5463 8.0136 6.32736
1 12.2575 10.2044 6.01147
1 16.818 8.22565 4.21857
1 18.6795 10.3708 4.12046
1 19.0581 8.44437 6.05573
1 16.806 10.3337 6.1163
1 20.7359 8.2704 4.07148
1 22.8403 10.3944 3.95153
1 22.7776 8.36096 6.00023
1 20.9741 10.32 6.15627
1 25.2376 8.66956 4.23427
1 27.4947 10.3727 4.25824
1 26.9318 8.37083 6.17982
1 24.7122 10.4895 6.13752
1 0.138162 12.8429 4.23775
1 2.27528 14.8291 4.41946
1 1.88836 12.635 6.23441
1 0.0294489 14.6934 6.22397
1 4.35977 12.4783 4.39023
1 6.17904 14.4911 4.30013
1 6.39934 12.7502 6.26592
1 4.04511 14.7965 6.46793
1 8.14284 12.4427 4.21676
1 10.245 14.5117 4.30777
1 10.2922 12.222 6.09266
1 8.33577 14.6463 6.5057
1 12.6752 12.2986 4.1444
1 14.6467 14.68 4.46184
1 14.6346 12.5721 6.19677
1 12.3088 14.3852 6.30102
1 16.4354 12.3589 4.2004
1 18.4568 14.4227 4.14461
1 18.6252 12.3148 6.23774
1 16.754 14.4424 6.60612
1 20.591 12.526 4.05105
1 22.9282 14.7981 4.15007
1 22.9266 12.585 5.7747
1 20.2358 14.4666 6.11189
1 25.3795 12.3973 4.03522
1 27.0985 14.7803 3.94928
1 27.0775 12.6304 6.24658
1 25.0172 14.4564 6.05569
1 -0.0209014 16.8136 3.98386
1 2.0795 18.8658 4.08531
1 2.14102 16.9157 6.32409
1 0.0780967 18.78 6.25927
1 4.06282 16.9227 4.31724
1 5.91287 18.5734 4.05095
1 6.19018 16.7767 6.55378
1 4.16062 18.8336 6.37777
1 8.24904 16.7465 4.52779
1 10.4436 18.6702 4.20877
1 10.5519 16.7157 6.39555
1 8.29568 18.4383 6.44894
1 12.4832 16.7756 4.34018
1 14.5108 18.4556 4.26183
1 14.4 16.5598 6.3378
1 12.522 18.8343 6.32759
1 16.694 16.601 4.23814
1 18.6514 18.8765 4.12885
1 18.7471 16.937 6.35392
1 16.6143 18.8877 6.28172
1 20.8325 16.7864 4.1473
1 23.0661 18.6483 3.88866
1 22.7022 16.4504 6.421
1 20.8547 18.693 6.09061
1 24.8407 16.6343 4.2214
1 27.0116 18.7189 4.24543
1 26.8869 16.5908 6.44519
1 24.6611 18.5191 6.44098
1 -0.00905047 20.768 4.03375
1 2.27045 22.8325 4.03264
1 2.1707 20.4135 6.17868
1 -0.133179 22.8451 6.26326
1 4.19472 20.7573 4.11506
1 6.50289 22.767 3.59766
1 6.35134 20.2829 6.23259
1 4.10178 22.8619 5.93146
1 8.19599 20.2941 4.01871
1 10.2533 22.3601 4.09769
1 10.3851 20.8383 6.52833
1 8.2782 22.5095 5.76721
1 12.464 20.6522 4.41071
1 14.364 22.9017 3.95892
1 14.5175 20.9607 6.36166
1 12.4375 22.7594 6.45113
1 16.3261 20.7022 4.15186
1 18.6123 22.9695 4.27685
1 18.3655 21.0886 6.18965
1 16.4244 22.9837 6.28809
1 20.6921 20.8512 3.89779
1 22.8176 22.7162 3.8843
1 22.8158 20.9651 6.00206
1 20.5322 22.7344 6.16139
1 25.0309 20.762 4.1801
1 26.9366 22.8486 4.12876
1 27.226 21.0173 6.49083
1 24.6895 22.7818 6.35006
1 -0.0785176 24.6503 4.30528
1 2.00961 26.5851 4.31215
1 2.11557 24.649 6.29312
1 -0.453945 26.5975 6.08726
1 4.22517 24.8043 4.30985
1 6.11124 27.0085 4.00886
1 6.35127 24.9389 5.74014
1 4.15048 27.1154 5.99939
1 8.40732 24.7393 4.04855
1 10.1596 26.8981 4.17529
1 10.4269 24.579 6.3518
1 8.43833 26.7296 6.50624
1 12.2785 24.7158 4.18963
1 14.4321 27.0833 3.93026
1 14.3432 25.0471 6.03669
1 12.0369 26.6722 6.11039
1 16.6401 24.9404 4.16998
1 18.8125 27.1155 4.05694
1 18.4201 25.0587 6.07327
1 16.5272 27.2548 6.05785
1 20.7454 24.7057 3.93988
1 22.7747 26.9341 3.91601
1 22.7643 24.6176 6.02301
1 20.8184 26.868 6.12479
1 24.8146 24.9315 3.9567
1 27.0469 26.631 3.94578
1 26.5829 24.84 6.27773
1 24.542 26.7794 6.25371
1 0.14566 0.0649213 8.08217
1 2.38332 2.16452 8.24944
1 2.49829 -0.192737 10.2324
1 0.261482 1.62627 10.176
1 4.29462 -0.00112095 8.16377
1 6.46296 2.02273 8.22056
1 6.04822 -0.278499 10.5289
1 4.41673 2.01555 10.3454
1 8.43313 -0.236502 8.40775
1 10.4038 1.82066 8.26007
1 10.4339 -0.127875 10.7199
1 8.56813 1.82101 10.2728
1 12.4265 -0.489955 8.64002
1 14.5141 1.71366 8.44454
1 14.6848 -0.187042 10.4979
1 12.4363 1.66762 10.3551
1 16.6621 -0.149121 8.40177
1 18.6729 1.89772 8.4232
1 18.5586 0.0143242 10.4351
1 16.3492 2.09147 10.5397
1 20.7416 -0.0732456 8.32606
1 22.5457 2.23616 8.32318
1 22.4061 0.182155 10.4609
1 20.6889 2.24274 10.1315
1 24.9177 0.0688438 8.44963
1 27.0926 2.09847 8.22976
1 27.1125 -0.0116283 10.1757
1 24.8775 2.10803 10.2719
1 0.263002 4.0577 8.34812
1 2.20183 6.46467 8.13283
1 2.24111 4.12502 10.6377
1 0.286441 6.08014 10.4449
1 3.95199 4.43201 8.09663
1 6.09037 6.24947 8.2318
1 5.93349 4.47006 10.2789
1 3.97761 6.48711 10.3856
1 8.28634 3.91216 8.39149
1 10.4604 6.07781 8.40811
1 10.7474 4.05247 10.2363
1 8.24857 6.40209 10.0705
1 12.6483 3.79399 7.96647
1 14.5183 5.96437 8.36952
1 14.3266 4.23847 10.4529
1 12.4804 6.33731 10.5032
1 16.3947 3.73309 8.41644
1 18.8537 6.48168 8.04098
1 18.4983 4.38118 10.0298
1 16.6076 6.15706 10.1031
1 20.8808 4.46873 8.23416
1 22.8991 6.3801 8.14302
1 22.8452 4.17733 10.3631
1 20.6959 6.27625 10.3542
1 24.8499 4.04581 8.28549
1 27.022 6.06044 8.41764
1 27.1411 4.02862 10.4401
1 24.9415 6.13658 10.5247
1 -0.0669543 8.3709 8.19552
1 2.03756 10.2409 8.35319
1 1.87486 8.41077 10.413
1 -0.1613 10.3338 10.1283
1 4.35799 8.31558 8.39333
1 6.32857 10.3161 8.50928
1 6.1498 8.18388 10.3431
1 4.09535 10.0564 10.4327
1 8.27403 8.34701 8.18332
1 10.2853 10.3528 8.49577
1 10.1776 8.31369 10.5825
1 8.25473 10.2299 10.5448
1 12.1283 8.14801 8.34977
1 14.5771 10.2904 8.29805
1 14.6172 8.24978 10.1011
1 12.5629 10.2403 10.2209
1 16.7664 8.36093 8.14579
1 18.783 10.3816 8.14297
1 18.6689 8.21192 10.341
1 16.5944 10.2886 10.3527
1 20.7701 8.21071 8.23936
1 22.8553 10.4508 8.40496
1 22.6058 8.17069 10.3669
1 20.6354 10.4159 10.429
1 24.9872 8.29505 8.19017
1 27.0008 10.3227 8.20124
1 26.9648 8.02845 10.2664
1 24.9348 10.1696 10.3782
1 -0.162787 12.8147 8.60591
1 1.94427 14.6887 8.47806
1 1.88104 12.275 10.5486
1 -0.0633618 14.684 10.6007
1 3.92091 12.7477 8.57669
1 6.04685 14.4831 8.27332
1 5.88075 12.318 10.4911
1 3.53586 14.4213 10.4862
1 8.24848 12.3987 8.43568
1 10.4998 14.3387 8.53586
1 10.3529 12.1791 10.3675
1 8.08753 14.1627 10.523
1 12.3654 12.1856 8.00692
1 14.403 14.5169 8.1074
1 14.3559 12.413 10.4439
1 12.5401 14.5484 10.401
1 16.4971 12.3442 8.40466
1 18.6279 14.2215 8.58883
1 18.4916 12.3512 10.5488
1 16.3967 14.4808 10.3064
1 20.8 12.475 8.06065
1 22.8925 14.2739 8.00733
1 22.8306 12.3525 10.3603
1 20.9404 14.395 10.3946
1 24.9302 12.6045 8.5983
1 26.9677 14.4484 8.41318
1 26.8549 12.4633 10.4785
1 24.8792 14.3005 10.5688
1 -0.133687 16.8187 8.33482
1 2.22358 18.8409 8.66182
1 2.24742 16.7365 10.6648
1 -0.0897585 18.7331 10.5012
1 4.01394 16.4583 8.45164
1 6.30342 18.419 8.4916
1 5.9751 16.718 10.3948
1 4.21701 18.7561 10.7466
1 8.4204 16.2905 8.56611
1 10.5939 18.6602 8.35614
1 10.561 16.6097 10.3542
1 8.31367 18.5413 10.4059
1 12.3529 16.6285 8.30345
1 14.4086 18.9573 8.33865
1 14.6843 16.5784 10.0912
1 12.6253 18.7903 10.6278
1 16.6476 16.4339 8.35206
1 18.6241 18.5999 8.35412
1 18.7053 16.7787 10.1564
1 16.589 18.7852 10.266
1 20.5164 16.2913 8.32945
1 22.8701 18.1692 8.27086
1 23.0029 16.3157 10.4378
1 20.5505 18.3794 10.5832
1 24.7937 16.2967 8.14138
1 26.9375 18.8219 8.09218
1 26.8042 16.4728 10.4493
1 24.8172 18.6061 9.80816
1 0.0689548 20.4925 8.43663
1 2.11391 22.9329 8.60298
1 1.95612 20.6526 10.7079
1 -0.00577779 22.8097 10.4094
1 4.04146 20.8136 8.55707
1 6.39269 22.8301 8.10162
1 6.3844 20.8645 10.2201
1 4.04608 22.9161 10.4595
1 8.32806 20.7306 8.33655
1 10.184 22.6784 8.35301
1 10.1961 20.5735 10.4449
1 7.9905 22.8999 10.1994
1 12.3267 20.7651 8.43844
1 14.3509 23.0344 8.43853
1 14.5893 20.7862 10.4744
1 12.3768 22.8636 10.4972
1 16.3444 21.1975 8.34912
1 18.6502 22.7877 8.39386
1 18.7817 20.7673 10.3081
1 16.7827 22.9935 10.5396
1 20.6865 20.7585 8.32684
1 22.4677 22.8275 8.24975
1 22.8132 20.5865 10.186
1 20.7396 22.5448 10.4493
1 24.5971 20.7153 8.22083
1 26.7131 22.8953 8.50435
1 27.1696 20.8296 10.2409
1 24.5925 22.7536 10.2121
1 -0.184683 24.8809 8.30345
1 2.17101 26.9473 8.06574
1 1.99428 24.9054 10.0543
1 0.175804 26.8945 9.92694
1 4.22468 24.8103 7.97389
1 6.21514 26.7166 8.07806
1 6.10555 24.9166 10.1441
1 4.18254 26.816 10.0824
1 8.27223 24.8688 8.0865
1 10.3874 26.8818 8.68677
1 10.2657 24.8392 10.5923
1 8.18003 26.7961 10.4424
1 12.4652 24.8807 8.4546
1 14.5148 26.784 8.30645
1 14.4331 25.0914 10.452
1 12.7118 26.9219 10.7898
1 16.5043 25.011 8.29065
1 18.4379 26.9847 8.11141
1 18.7414 25.1025 10.5365
1 16.5964 26.815 10.3854
1 20.714 24.9749 8.36048
1 22.7012 27.0873 8.24507
1 22.6965 24.8079 10.3604
1 20.7013 26.9526 10.326
1 24.7471 24.7269 8.44904
1 26.7176 26.9728 8.39166
1 26.9322 25.0589 10.5668
1 24.7667 27.3185 10.6222
1 0.210231 -0.391776 12.3446
1 2.14953 1.71604 12.5666
1 1.88589 -0.323955 14.7344
1 -0.0816773 2.35672 14.7261
1 4.02959 -0.447802 12.5428
1 6.35999 1.88584 12.2163
1 6.19941 0.0279866 14.8143
1 3.89306 1.90121 14.6821
1 8.47345 0.0774481 12.6208
1 10.3206 2.21129 12.5583
1 10.6428 -0.01829 14.5886
1 8.03488 2.03414 14.3599
1 12.343 0.226415 12.6304
1 14.5242 2.30055 12.6837
1 14.2182 0.0350124 14.7442
1 12.308 2.43608 14.4663
1 16.6375 -0.193908 12.5817
1 18.7826 2.07586 12.2708
1 18.6069 0.0160935 14.5919
1 16.5707 2.05959 14.5785
1 20.7532 -0.0615042 12.572
1 22.4677 2.1272 12.3122
1 22.5682 0.1866 14.6712
1 20.4995 2.16469 14.5577
1 24.7002 0.27404 12.3157
1 27.3165 1.79268 12.4278
1 27.0439 0.188267 14.5672
1 24.9222 2.18338 14.4947
1 0.301585 3.79732 12.534
1 2.09598 6.22973 12.6222
1 2.09571 4.00485 14.5941
1 0.0300995 6.19439 14.6114
1 4.10005 3.97764 12.4892
1 6.03886 5.98181 12.5232
1 6.13268 3.95613 14.2257
1 4.13468 5.98871 14.4678
1 8.16559 3.89559 11.9623
1 10.0355 6.09563 12.3125
1 10.2361 4.17377 14.4389
1 7.99572 6.08027 14.2832
1 12.2587 4.32492 12.5711
1 14.5623 6.28679 12.2672
1 14.5463 4.39716 14.3883
1 12.4043 6.16974 14.431
1 16.5516 4.30845 12.2321
1 18.5334 6.22051 12.4724
1 18.701 4.19947 14.5727
1 16.5465 6.46036 14.4249
1 20.6138 4.29521 12.6186
1 22.8103 6.22854 12.422
1 22.8515 4.28947 14.4214
1 20.7666 6.30075 14.3938
1 25.028 4.12266 12.4569
1 27.0955 6.00742 12.4158
1 27.0752 4.1542 14.4495
1 25.0958 6.27438 14.1953
1 0.188724 8.2285 12.5284
1 2.08439 10.2705 12.5187
1 2.27068 8.21951 14.6985
1 0.00992066 10.2677 14.4727
1 3.98471 8.15101 12.5716
1 6.13321 10.6376 12.4201
1 6.13625 8.22029 14.6657
1 4.22538 10.408 14.6435
1 8.0644 8.35756 12.6862
1 10.6039 10.3286 12.3973
1 10.2757 7.98531 14.3665
1 8.27768 10.4321 14.5192
1 12.5592 8.21719 12.4271
1 14.2764 10.6267 12.4167
1 14.4437 8.22851 14.4838
1 12.4672 10.1854 14.7646
1 16.4612 8.33872 12.3999
1 18.6698 10.3006 12.6307
1 18.6398 8.13434 14.3882
1 16.503 10.3194 14.3191
1 20.7526 8.32224 12.4383
1 22.684 10.4079 12.4766
1 22.9131 8.48305 14.2228
1 20.8497 10.5262 14.5429
1 24.8852 8.1181 12.3029
1 27.0363 10.2422 12.367
1 27.0379 8.26288 14.4486
1 24.8875 10.2948 14.5164
1 -0.133519 12.2816 12.564
1 1.65591 14.89 12.6263
1 1.80627 12.3491 14.6142
1 -0.234898 14.6247 14.6751
1 3.70031 12.4501 12.5485
1 6.0558 14.0965 12.614
1 6.25676 12.2561 14.5522
1 4.24018 14.9189 14.7541
1 8.27218 12.3624 12.6075
1 10.3575 14.5799 12.3837
1 10.631 12.4541 14.6439
1 8.57718 14.6526 14.3246
1 12.3625 12.7622 12.2296
1 14.8646 14.5355 12.3357
1 14.1192 12.3005 14.4896
1 12.4901 14.8308 14.3187
1 16.665 12.336 12.5368
1 18.6848 14.5735 12.3423
1 18.6982 12.279 14.7946
1 16.8068 14.5466 14.4529
1 20.7795 12.4304 12.5756
1 22.8648 14.555 12.4882
1 22.8371 12.2692 14.4952
1 20.557 14.5738 14.5743
1 24.8381 12.1607 12.409
1 26.9451 14.6763 12.6427
1 26.9037 12.3576 14.5408
1 25.0819 14.6787 14.4875
1 0.0467979 16.8129 12.8227
1 2.1631 18.9753 12.8331
1 2.2273 16.7847 14.6854
1 0.0962023 18.9707 14.6636
1 4.05504 16.6977 12.7951
1 6.45085 18.6342 12.3936
1 6.42246 16.5975 14.4629
1 4.37108 18.7899 14.6139
1 8.14945 16.2632 12.2352
1 10.3296 18.7018 12.4085
1 10.3511 16.7107 14.4027
1 8.48674 18.7994 14.6605
1 12.5994 16.5375 12.4829
1 14.8785 18.8722 12.3913
1 14.6964 16.4812 14.5595
1 12.4679 18.5157 14.2956
1 16.5584 16.7234 12.4059
1 18.6422 18.6762 12.4865
1 18.6721 16.6165 14.3193
1 16.5906 18.7597 14.5819
1 20.9012 16.4989 12.6513
1 22.7629 18.6064 12.2884
1 22.7952 16.4778 14.4516
1 20.6657 18.7873 14.2859
1 24.9071 16.5974 12.46
1 27.0554 18.8646 12.4921
1 27.0262 16.9664 14.472
1 24.962 18.7164 14.4017
1 -0.125748 21.1131 12.5194
1 2.18719 22.9693 12.4596
1 2.21073 21.0346 14.5115
1 -0.271193 22.7136 14.8413
1 4.26611 20.8537 12.4774
1 6.14724 22.8004 12.6912
1 6.44725 20.7244 14.5297
1 4.28002 22.8537 14.6409
1 7.9853 20.688 12.1056
1 10.1986 22.6844 12.3595
1 10.5317 20.6465 14.412
1 8.46445 22.7061 14.4717
1 12.3264 20.7218 12.3965
1 14.5208 22.8868 12.5842
1 14.7221 20.848 14.1606
1 12.3956 22.8903 14.3556
1 16.7539 20.8436 12.4765
1 18.8723 22.7561 12.499
1 18.731 20.928 14.5298
1 16.7086 22.9509 14.4104
1 20.6825 20.7112 12.4129
1 22.7625 22.5244 12.406
1 22.8244 20.6059 14.7285
1 21.1244 22.8145 14.5591
1 24.9069 20.634 12.1894
1 26.6948 22.6484 12.3668
1 26.9966 20.7107 14.6996
1 24.9723 22.4344 14.6188
1 -0.267951 24.8446 12.4575
1 2.18447 26.6946 12.4022
1 1.83274 24.6278 14.9068
1 -0.143388 26.8433 14.5204
1 4.40856 24.9553 12.6192
1 6.17601 27.0196 12.6271
1 6.33438 24.9632 14.8496
1 4.08799 26.8882 14.6915
1 8.18224 25.1367 12.5294
1 10.2888 26.9193 12.6269
1 10.2917 24.8219 14.4362
1 8.34661 26.8341 14.7531
1 12.2814 24.7753 12.5431
1 14.648 27.0454 12.7743
1 14.506 24.9408 14.5049
1 12.275 26.7629 14.598
1 16.6058 24.9882 12.4455
1 18.7721 26.9419 12.6303
1 19.0022 24.9445 14.7259
1 16.8224 27.0859 14.81
1 20.8416 24.8901 12.7423
1 22.676 27.2352 12.3983
1 23.061 24.9233 14.5792
1 20.6704 26.9639 14.5617
1 24.7842 24.8826 12.3362
1 26.607 27.2015 12.3983
1 26.564 24.8882 14.4872
1 24.7338 27.0936 14.4721
1 -0.276809 0.108575 16.8103
1 2.11614 2.12773 16.6846
1 1.88832 0.145243 18.7082
1 -0.0118039 2.15204 18.5222
1 3.92294 0.00654397 16.7386
1 6.21045 1.95537 16.9801
1 6.23108 -0.00253909 18.6948
1 3.87848 1.90471 18.8494
1 8.39228 0.0414201 16.5047
1 10.1264 2.36481 16.5054
1 10.3435 0.0147392 18.4472
1 8.20559 2.00582 18.8875
1 12.2811 0.249707 16.7208
1 14.7918 2.1181 16.4234
1 14.5435 0.0562986 18.5447
1 12.5625 2.32293 18.783
1 17.1387 0.300918 16.8021
1 18.8187 2.44289 16.9495
1 19.0183 0.0137453 18.896
1 16.6281 2.13949 18.6461
1 20.7024 0.0360335 16.4998
1 22.9406 2.24705 16.3631
1 22.9967 -0.103852 18.5646
1 21.0182 2.0895 18.7041
1 24.8374 0.151234 16.3465
1 27.0346 2.23708 16.6019
1 26.8549 0.186558 18.5502
1 24.8087 2.28226 18.4987
1 0.0108231 4.27143 16.6987
1 2.12159 6.07761 16.6019
1 1.99226 4.29857 18.8842
1 0.0177107 6.35449 18.4909
1 4.14715 3.97961 16.6895
1 6.26831 6.04413 16.6648
1 5.97207 4.32471 18.9748
1 3.97757 5.98499 18.7752
1 8.21045 3.94718 17.1937
1 10.1909 6.03172 16.5559
1 10.2787 4.18366 18.8877
1 8.34047 6.4835 18.7217
1 12.5326 4.38694 16.4652
1 14.4621 6.11655 16.4462
1 14.5413 4.1525 18.629
1 12.4493 5.9837 18.7912
1 16.6513 4.2354 16.5239
1 18.3866 6.17854 16.4594
1 18.4928 4.10913 18.8416
1 16.5106 6.19701 18.7114
1 20.9394 4.50903 16.415
1 22.9132 6.41187 16.3366
1 22.8005 4.46476 18.2335
1 20.497 6.24162 18.4874
1 24.975 4.5452 16.3773
1 27.134 6.32768 16.4812
1 26.8827 4.31498 18.4904
1 25.0352 6.26796 18.496
1 0.132287 8.35644 16.58
1 2.63295 10.1755 16.5729
1 2.24698 8.45316 18.7349
1 0.312173 10.247 18.6158
1 4.23716 7.99728 16.8853
1 6.10093 10.1819 16.7653
1 6.14181 7.9695 18.9478
1 4.15914 10.1064 18.9693
1 8.32853 8.25477 16.4274
1 10.3054 10.0059 16.8554
1 10.4866 8.10527 18.8183
1 8.27376 10.2712 18.6166
1 12.4055 8.04138 16.673
1 14.3112 10.2769 16.8286
1 14.2396 8.26077 18.7996
1 12.5311 10.1063 18.7473
1 16.412 8.28122 16.845
1 18.5546 10.2486 16.688
1 18.4244 8.5234 18.6062
1 16.527 10.3816 18.653
1 20.4315 8.27815 16.5328
1 22.7997 10.3254 16.6289
1 22.8833 8.16572 18.7441
1 20.7496 10.4783 18.6399
1 25.0306 8.65225 16.4165
1 26.9498 10.4512 16.562
1 27.2075 8.41663 18.6147
1 24.8221 10.4259 18.7696
1 0.0477775 12.1311 16.6827
1 2.06133 14.4397 16.5372
1 2.08712 12.1722 18.5408
1 0.0713999 14.2893 18.5503
1 4.21301 12.4138 16.3552
1 6.21591 14.7609 16.7284
1 6.24365 12.4288 18.2573
1 4.08676 14.4664 18.3994
1 8.75769 12.0667 16.7105
1 10.6169 14.5255 16.5334
1 10.4188 12.3019 18.6353
1 8.63342 14.3418 18.2983
1 12.4828 12.2421 16.822
1 14.362 14.5193 16.4591
1 14.4339 12.4813 18.7924
1 12.5152 14.4688 18.5533
1 16.5911 12.3833 16.4139
1 18.4574 14.6989 16.3717
1 18.4303 12.4531 18.3516
1 16.7619 14.5613 18.4785
1 20.8202 12.322 16.4626
1 22.7106 14.5711 16.5862
1 22.932 12.5774 18.598
1 20.8214 14.5055 18.4098
1 24.7279 12.3778 16.4236
1 26.8097 14.636 16.6942
1 26.8312 12.4012 18.6474
1 24.9835 14.7565 18.3936
1 0.122734 16.7544 16.4063
1 2.30674 18.8284 16.5736
1 1.85981 16.4835 18.7073
1 0.479384 18.7419 18.7595
1 4.22874 16.7086 16.7445
1 6.25692 18.7328 16.5931
1 6.47369 16.489 18.4373
1 4.15561 18.6585 18.7636
1 8.47329 16.7325 16.7698
1 10.5519 18.8406 16.6205
1 10.3974 16.8011 18.4704
1 8.45567 18.6895 18.8187
1 12.3873 16.7896 16.323
1 14.4777 18.8669 16.5491
1 14.1804 16.8255 18.4757
1 12.5981 19.1346 18.8273
1 16.4987 16.7193 16.6019
1 18.4818 18.8043 16.5022
1 18.5151 16.941 18.5735
1 16.4638 18.584 18.6295
1 20.5448 16.7787 16.4488
1 22.8555 18.7471 16.4411
1 22.8208 16.741 18.3697
1 20.7341 18.7565 18.5456
1 25.0563 16.845 16.6688
1 27.2625 18.8268 16.6548
1 27.1374 16.6361 18.7498
1 24.8986 18.7638 19.0823
1 0.0722467 20.7247 16.8189
1 2.18647 22.7727 16.4808
1 2.39831 20.9248 18.9945
1 -0.181736 22.7584 19.004
1 4.29262 20.8836 16.6215
1 6.51958 22.7751 16.4505
1 6.36145 20.863 18.8212
1 4.20054 23.0958 18.934
1 8.55662 20.7247 16.7043
1 10.5315 23.0709 16.6375
1 10.4626 21.0011 18.7661
1 8.50742 22.8164 18.808
1 12.3549 21.0716 16.5345
1 14.6485 23.0062 16.2865
1 14.6757 20.8532 18.7478
1 12.7141 22.8866 18.6701
1 16.5106 20.847 16.333
1 18.558 22.8155 16.5175
1 18.3238 20.8252 18.5468
1 16.4267 22.8313 18.4408
1 20.7268 20.7103 16.4737
1 23.2089 22.9333 16.5707
1 22.7654 20.7648 18.5292
1 20.8715 22.7134 18.5811
1 25.0642 20.397 16.6508
1 26.9153 22.6324 16.897
1 27.1639 20.6778 19.057
1 24.8983 22.6668 18.953
1 -0.356281 24.8408 16.6656
1 1.61773 26.9539 16.3854
1 1.97778 24.8945 18.6533
1 0.1242 27.0621 18.6017
1 4.20395 24.7725 16.4759
1 6.28489 26.8755 16.5339
1 6.18178 24.88 18.6796
1 3.93529 26.6585 18.6422
1 8.32553 24.7368 16.726
1 10.2885 26.8032 16.5824
1 10.3846 24.9245 18.9327
1 8.48273 26.9396 18.7136
1 12.6223 24.8027 16.6309
1 14.6876 27.2998 16.7192
1 14.5894 25.1684 18.4946
1 12.2956 27.1642 18.4835
1 16.7366 25.0036 16.5273
1 18.8587 26.9691 16.8229
1 18.7058 24.6249 18.5893
1 16.8073 27.0109 18.7939
1 20.9269 24.8451 16.6508
1 22.9319 26.8888 16.3997
1 23.0018 24.9498 18.6365
1 21.0599 26.8018 18.6449
1 25.1443 24.8189 16.5463
1 26.9848 26.9802 16.4723
1 27.0636 24.8632 18.8167
1 24.9194 26.9684 18.4684
1 -0.174759 0.163252 20.9066
1 1.93069 2.14881 20.7883
1 1.81102 0.0964647 22.876
1 -0.342371 2.0389 22.963
1 4.12231 -0.110018 20.7924
1 6.22198 1.99186 20.7774
1 6.28185 -0.143404 22.6876
1 4.08329 2.03118 22.6844
1 8.27864 -0.225591 20.7709
1 10.5658 1.91967 20.8988
1 10.2442 -0.179588 23.1111
1 8.33101 1.94858 22.662
1 12.4757 -0.0809024 20.3624
1 14.5061 2.1083 20.6575
1 14.6185 -0.0616369 22.6352
1 12.4837 1.8631 22.8438
1 16.5745 0.176896 20.7522
1 18.8393 2.13922 20.9035
1 18.9888 0.0974342 22.6882
1 16.6735 1.9712 22.9946
1 21.0827 -0.116607 20.8023
1 22.904 2.25135 20.7458
1 23.0106 0.138354 22.9809
1 20.929 2.16048 22.623
1 24.9703 0.177065 20.6277
1 26.7897 2.17671 20.7569
1 26.7827 -0.0257996 22.9033
1 24.7994 2.11175 22.7893
1 0.142805 4.20034 20.871
1 1.8581 6.28413 20.9562
1 1.82813 3.87216 23.0244
1 -0.0533209 6.2947 22.9105
1 3.75319 4.24631 21.0167
1 5.96947 6.20257 21.02
1 6.01888 4.21878 22.6395
1 3.83187 6.08777 22.9156
1 8.14343 4.35109 20.7133
1 10.2751 6.20338 21.0202
1 10.2666 3.92824 22.751
1 8.18531 6.3222 22.7101
1 12.4571 4.1382 20.939
1 14.5834 6.11084 20.9156
1 14.642 4.0048 22.8092
1 12.5164 6.26115 23.1056
1 16.5106 4.02096 20.7389
1 18.5207 6.26973 20.5326
1 18.8153 4.10395 22.7859
1 16.7594 6.05483 22.6454
1 20.8806 4.26071 20.4146
1 22.8511 6.29196 20.5224
1 22.7071 4.4759 22.7765
1 20.5883 6.27839 22.6202
1 24.929 4.1901 20.4558
1 26.9703 6.27069 20.7209
1 26.9114 4.34971 22.8796
1 24.8635 6.08011 22.6972
1 -0.131341 8.42387 20.9953
1 2.19693 10.3247 20.8132
1 1.78826 8.39259 23.0616
1 -0.193174 10.36 22.9877
1 3.9374 8.01358 20.9212
1 5.99572 10.2694 20.9824
1 5.85773 8.25577 22.9539
1 4.0935 10.4235 22.9725
1 8.06611 8.27534 20.8466
1 10.4499 10.2799 20.8568
1 10.1867 8.43261 23.0577
1 8.05491 10.3892 22.8435
1 12.4233 8.26364 21.1785
1 14.5695 10.413 20.6654
1 14.8899 8.26057 22.7244
1 12.6407 10.4203 22.7114
1 16.8288 8.71202 20.7379
1 19.0136 10.8452 20.7937
1 18.8356 8.38971 22.7271
1 16.4834 10.784 22.9228
1 20.5163 8.28461 20.7559
1 22.8697 10.4858 20.6524
1 22.8379 8.12647 22.487
1 20.9228 10.5316 22.7762
1 24.9897 8.27131 20.5054
1 26.8385 10.3357 20.8071
1 27.1341 8.11198 22.7769
1 25.2117 10.2855 22.6159
1 0.00985237 12.302 21.0017
1 1.91793 14.2412 20.6299
1 2.16786 12.4388 22.941
1 0.181583 14.5044 22.7618
1 4.29947 12.4757 20.7318
1 6.46267 14.3596 20.5104
1 6.17646 12.6214 22.7237
1 4.25989 14.4373 22.6254
1 8.26489 12.2619 20.4905
1 10.2498 14.5806 20.5239
1 10.3587 12.3658 22.5262
1 8.30793 14.5927 22.7725
1 12.4214 12.6027 20.6235
1 14.5985 14.6988 20.4907
1 14.7016 12.6004 22.4443
1 12.3592 14.6492 22.4831
1 16.7599 12.4289 20.6193
1 18.9399 14.5924 20.2899
1 19.1309 12.6547 23.0288
1 16.8555 14.3896 22.8456
1 21.1418 12.8597 20.8086
1 23.303 14.7817 20.8976
1 23.1953 12.6982 22.746
1 21.1441 14.7301 22.7995
1 24.9725 12.4482 20.6183
1 27.1608 14.6703 20.5399
1 26.9313 12.5008 22.7468
1 25.0883 14.6844 22.6519
1 0.122929 16.6432 20.8137
1 2.33147 18.8143 20.7845
1 2.04111 16.4843 22.691
1 0.125259 18.9703 22.9015
1 3.89185 16.2896 20.5143
1 6.12873 18.5208 20.6508
1 6.29547 16.444 22.9627
1 4.20868 18.6772 22.9422
1 8.38612 16.6214 20.7015
1 10.4344 18.6357 20.8927
1 10.4093 16.5748 22.6709
1 8.1813 18.5775 22.8873
1 12.4959 16.65 20.552
1 14.5231 18.5307 20.9148
1 14.5627 16.4615 22.8869
1 12.568 18.6395 22.9436
1 16.8565 16.4383 20.9162
1 18.6979 18.6106 20.8163
1 18.7683 16.1984 22.7316
1 16.7266 18.4292 22.9477
1 21.0899 16.4728 20.6455
1 22.6231 18.9045 20.5862
1 22.9635 16.4631 22.8493
1 20.9131 18.5066 22.6533
1 25.143 16.6549 20.6167
1 27.2073 18.9365 20.9015
1 27.2976 16.8202 22.7601
1 25.2672 19.1509 23.0261
1 0.204461 20.8212 20.8416
1 2.23266 22.9996 20.706
1 2.16863 20.7496 22.866
1 0.11538 22.9757 22.7828
1 4.31879 20.7555 20.7477
1 6.14239 22.9433 20.8262
1 6.2885 20.2874 22.9239
1 4.06414 23.0598 22.7914
1 8.26429 20.5401 20.7659
1 10.4727 22.808 20.9025
1 10.243 20.6529 22.6187
1 8.25301 22.7331 22.5083
1 12.494 20.7217 21.1518
1 14.5993 22.7819 20.7992
1 14.7203 20.6412 22.8827
1 12.2732 23.1305 22.6858
1 16.5373 20.5643 20.6997
1 18.6653 22.736 20.5519
1 19.0244 20.3655 22.9555
1 16.9176 22.5989 22.9011
1 20.806 20.8461 20.8105
1 22.5785 22.8843 20.6048
1 22.4837 20.6349 23.0514
1 20.7858 22.6295 22.8717
1 24.6793 20.8758 21.0942
1 26.8418 22.8961 20.9459